2
Lattice="2.8844991406148166 0.0 0.0 0.0 2.8844991406148166 0.0 0.0 0.0 2.8844991406148166" Properties=species:S:1:pos:R:3:dft_forces:R:3 dft_energy=-22.51909587 dft_stress="-1.0452739291463267 -1.0452819582860813 -1.045285393231972 -6.769977703571794e-07 -8.992847488191235e-06 2.5832982121118215e-07" pbc="T T T"
W        0.00000000       0.00000000       0.00000000       0.00017752       0.00003750       0.00005974
W        1.44224957       1.44224957       1.44224957      -0.00017752      -0.00003750      -0.00005974
2
Lattice="2.9624960684073702 0.0 0.0 0.0 2.9624960684073702 0.0 0.0 0.0 2.9624960684073702" Properties=species:S:1:pos:R:3:dft_forces:R:3 dft_energy=-24.19374252 dft_stress="-0.6519174292335299 -0.6518699530632921 -0.6519274743058341 -1.369009490916671e-05 1.3860538040376329e-05 -3.7193152881138337e-06" pbc="T T T"
W        0.00000000       0.00000000       0.00000000      -0.00000361      -0.00004146       0.00008695
W        1.48124803       1.48124803       1.48124803       0.00000361       0.00004146      -0.00008695
2
Lattice="3.0365889718756622 0.0 0.0 0.0 3.0365889718756622 0.0 0.0 0.0 3.0365889718756622" Properties=species:S:1:pos:R:3:dft_forces:R:3 dft_energy=-25.20174227 dft_stress="-0.3687041594109872 -0.36869102277565824 -0.36878572027531614 4.9390222633811634e-05 4.770336741141393e-05 9.383630871166436e-05" pbc="T T T"
W        0.00000000       0.00000000       0.00000000       0.00003155       0.00053278      -0.00076684
W        1.51829449       1.51829449       1.51829449      -0.00003155      -0.00053278       0.00076684
2
Lattice="3.1072325059538586 0.0 0.0 0.0 3.1072325059538586 0.0 0.0 0.0 3.1072325059538586" Properties=species:S:1:pos:R:3:dft_forces:R:3 dft_energy=-25.72580165 dft_stress="-0.16603532047370145 -0.16603926280435213 -0.16603452468128788 8.482086071892831e-07 -1.0834698106712006e-06 6.124168754316653e-07" pbc="T T T"
W        0.00000000       0.00000000       0.00000000       0.00000798      -0.00013108      -0.00005788
W        1.55361625       1.55361625       1.55361625      -0.00000798       0.00013108       0.00005788
2
Lattice="3.1748021039363987 0.0 0.0 0.0 3.1748021039363987 0.0 0.0 0.0 3.1748021039363987" Properties=species:S:1:pos:R:3:dft_forces:R:3 dft_energy=-25.90444591 dft_stress="-0.019408873014557473 -0.019396098836146493 -0.01936151045226886 -6.691802177619193e-05 -5.087683776043277e-05 5.179987582053226e-05" pbc="T T T"
W        0.00000000       0.00000000       0.00000000      -0.00004625      -0.00008817      -0.00000544
W        1.58740105       1.58740105       1.58740105       0.00004625       0.00008817       0.00000544
2
Lattice="3.239611801277483 0.0 0.0 0.0 3.239611801277483 0.0 0.0 0.0 3.239611801277483" Properties=species:S:1:pos:R:3:dft_forces:R:3 dft_energy=-25.83304028 dft_stress="0.08633000564627887 0.08618033740316079 0.08640772059879007 1.3893293480268964e-05 -1.4486573888720672e-05 8.02626241892045e-06" pbc="T T T"
W        0.00000000       0.00000000       0.00000000       0.00010401      -0.00000583      -0.00011673
W        1.61980590       1.61980590       1.61980590      -0.00010401       0.00000583       0.00011673
2
Lattice="3.3019272488946263 0.0 0.0 0.0 3.3019272488946263 0.0 0.0 0.0 3.3019272488946263" Properties=species:S:1:pos:R:3:dft_forces:R:3 dft_energy=-25.58096364 dft_stress="0.1628606486466589 0.16301120058760504 0.16289601228214354 1.4550287213877689e-05 -1.7968899075324716e-05 -1.9856031842553772e-05" pbc="T T T"
W        0.00000000       0.00000000       0.00000000       0.00013221       0.00002337       0.00007654
W        1.65096362       1.65096362       1.65096362      -0.00013221      -0.00002337      -0.00007654
2
Lattice="3.361975406798963 0.0 0.0 0.0 3.361975406798963 0.0 0.0 0.0 3.361975406798963" Properties=species:S:1:pos:R:3:dft_forces:R:3 dft_energy=-25.19762314 dft_stress="0.21748226551078634 0.21768608989928412 0.21745187436079208 7.698926472813503e-06 -6.9060925345890556e-06 2.064176918490209e-05" pbc="T T T"
W        0.00000000       0.00000000       0.00000000      -0.00000539      -0.00003610       0.00005469
W        1.68098770       1.68098770       1.68098770       0.00000539       0.00003610      -0.00005469
2
Lattice="3.4199518933533937 0.0 0.0 0.0 3.4199518933533937 0.0 0.0 0.0 3.4199518933533937" Properties=species:S:1:pos:R:3:dft_forces:R:3 dft_energy=-24.72300765 dft_stress="0.25580290679523066 0.25585457674779727 0.2558042851888305 -2.0620441948218946e-05 3.3423936727563065e-05 -2.4459681592677502e-05" pbc="T T T"
W        0.00000000       0.00000000       0.00000000      -0.00012566      -0.00009807       0.00001673
W        1.70997595       1.70997595       1.70997595       0.00012566       0.00009807      -0.00001673
2
Lattice="3.476026644886449 0.0 0.0 0.0 3.476026644886449 0.0 0.0 0.0 3.476026644886449" Properties=species:S:1:pos:R:3:dft_forces:R:3 dft_energy=-24.18422869 dft_stress="0.28192551285292106 0.2819120152274288 0.28190593124151025 5.3005017610103425e-06 -1.5974312486984456e-05 1.6684215493453294e-05" pbc="T T T"
W        0.00000000       0.00000000       0.00000000       0.00032499      -0.00004789       0.00019225
W        1.73801332       1.73801332       1.73801332      -0.00032499       0.00004789      -0.00019225
4
Lattice="3.634241185664279 0.0 0.0 0.0 3.634241185664279 0.0 0.0 0.0 3.634241185664279" Properties=species:S:1:pos:R:3:dft_forces:R:3 dft_energy=-42.64247583 dft_stress="-1.047776373220188 -1.047736984635196 -1.0479070430897153 2.5401356799026887e-05 -1.0167087566080156e-05 -1.1236489015181615e-05" pbc="T T T"
W        0.00000000       0.00000000       0.00000000      -0.00027559      -0.00039053      -0.00006799
W        1.81712059       1.81712059       0.00000000      -0.00041036       0.00015186      -0.00012000
W        1.81712059       0.00000000       1.81712059       0.00041078      -0.00016971      -0.00003198
W        0.00000000       1.81712059       1.81712059       0.00027517       0.00040838       0.00021996
4
Lattice="3.7325111568172478 0.0 0.0 0.0 3.7325111568172478 0.0 0.0 0.0 3.7325111568172478" Properties=species:S:1:pos:R:3:dft_forces:R:3 dft_energy=-46.04430208 dft_stress="-0.6719738701732029 -0.6719737691793437 -0.6719738356202084 -2.495605008893162e-07 6.847559662006523e-08 -1.361148310172621e-07" pbc="T T T"
W        0.00000000       0.00000000       0.00000000       0.00000550       0.00000282      -0.00000137
W        1.86625558       1.86625558       0.00000000      -0.00000093       0.00000279       0.00000274
W        1.86625558       0.00000000       1.86625558      -0.00000065       0.00000054      -0.00000401
W        0.00000000       1.86625558       1.86625558      -0.00000392      -0.00000614       0.00000263
4
Lattice="3.825862365544778 0.0 0.0 0.0 3.825862365544778 0.0 0.0 0.0 3.825862365544778" Properties=species:S:1:pos:R:3:dft_forces:R:3 dft_energy=-48.15855285 dft_stress="-0.39796609030009883 -0.39796181689483806 -0.3979730844852933 4.007311002200339e-06 3.120061755428656e-06 -9.730256825377839e-06" pbc="T T T"
W        0.00000000       0.00000000       0.00000000      -0.00006373       0.00008671      -0.00003696
W        1.91293118       1.91293118       0.00000000       0.00009122      -0.00007513       0.00003920
W        1.91293118       0.00000000       1.91293118      -0.00008843       0.00007698      -0.00007178
W        0.00000000       1.91293118       1.91293118       0.00006093      -0.00008855       0.00006954
4
Lattice="3.9148676411688634 0.0 0.0 0.0 3.9148676411688634 0.0 0.0 0.0 3.9148676411688634" Properties=species:S:1:pos:R:3:dft_forces:R:3 dft_energy=-49.33437433 dft_stress="-0.19918313847361818 -0.199208649475008 -0.19919289276649518 5.588978071299541e-06 -1.2968782424015758e-05 -6.746852912260397e-06" pbc="T T T"
W        0.00000000       0.00000000       0.00000000       0.00001550       0.00004356       0.00008600
W        1.95743382       1.95743382       0.00000000      -0.00002177      -0.00002404       0.00004955
W        1.95743382       0.00000000       1.95743382      -0.00007056       0.00000072      -0.00006540
W        0.00000000       1.95743382       1.95743382       0.00007683      -0.00002023      -0.00007015
4
Lattice="4.0 0.0 0.0 0.0 4.0 0.0 0.0 0.0 4.0" Properties=species:S:1:pos:R:3:dft_forces:R:3 dft_energy=-49.82800076 dft_stress="-0.054216678924341476 -0.05419607547802261 -0.054107672927291794 3.5034370912223465e-05 5.858040791603592e-05 4.7917213997084934e-05" pbc="T T T"
W        0.00000000       0.00000000       0.00000000      -0.00020591      -0.00003524       0.00000110
W        2.00000000       2.00000000       0.00000000       0.00011575      -0.00005133      -0.00009334
W        2.00000000       0.00000000       2.00000000       0.00015943      -0.00022963       0.00024388
W        0.00000000       2.00000000       2.00000000      -0.00006927       0.00031620      -0.00015164
4
Lattice="4.081655101917348 0.0 0.0 0.0 4.081655101917348 0.0 0.0 0.0 4.081655101917348" Properties=species:S:1:pos:R:3:dft_forces:R:3 dft_energy=-49.82097615 dft_stress="0.052612168593441505 0.052680436110630335 0.052743319427420776 -0.0001017521962832027 1.476794112011549e-05 -5.799617145430762e-05" pbc="T T T"
W        0.00000000       0.00000000       0.00000000       0.00007386       0.00013562      -0.00024405
W        2.04082755       2.04082755       0.00000000       0.00010521      -0.00022736       0.00019273
W        2.04082755       0.00000000       2.04082755      -0.00041826       0.00056919       0.00001812
W        0.00000000       2.04082755       2.04082755       0.00023919      -0.00047745       0.00003320
4
Lattice="4.160167646103808 0.0 0.0 0.0 4.160167646103808 0.0 0.0 0.0 4.160167646103808" Properties=species:S:1:pos:R:3:dft_forces:R:3 dft_energy=-49.44775275 dft_stress="0.13083743487364713 0.13102976251468218 0.13101924748170687 4.17880333109402e-05 6.071312534284111e-05 -7.497288278992718e-05" pbc="T T T"
W        0.00000000       0.00000000       0.00000000      -0.00008900      -0.00008292       0.00010071
W        2.08008382       2.08008382       0.00000000      -0.00010347       0.00005427      -0.00011205
W        2.08008382       0.00000000       2.08008382       0.00009307       0.00005399      -0.00011365
W        0.00000000       2.08008382       2.08008382       0.00009941      -0.00002534       0.00012498
4
Lattice="4.235823584254892 0.0 0.0 0.0 4.235823584254892 0.0 0.0 0.0 4.235823584254892" Properties=species:S:1:pos:R:3:dft_forces:R:3 dft_energy=-48.804058 dft_stress="0.18839157528043743 0.1884957828052711 0.1884261576100512 -7.014339651510162e-05 -9.239920747693886e-05 0.00010498404346707592" pbc="T T T"
W        0.00000000       0.00000000       0.00000000      -0.00014367      -0.00010570       0.00006717
W        2.11791179       2.11791179       0.00000000       0.00015942      -0.00002540       0.00009529
W        2.11791179       0.00000000       2.11791179      -0.00008319       0.00012730       0.00005391
W        0.00000000       2.11791179       2.11791179       0.00006744       0.00000380      -0.00021636
4
Lattice="4.308869380063767 0.0 0.0 0.0 4.308869380063767 0.0 0.0 0.0 4.308869380063767" Properties=species:S:1:pos:R:3:dft_forces:R:3 dft_energy=-47.96558089 dft_stress="0.22959385601715054 0.22936369437628487 0.22940216597123872 -0.00015526683311343448 5.698061550443515e-05 -2.0616597178597405e-05" pbc="T T T"
W        0.00000000       0.00000000       0.00000000      -0.00010187      -0.00002127       0.00025932
W        2.15443469       2.15443469       0.00000000       0.00007761      -0.00012003       0.00005275
W        2.15443469       0.00000000       2.15443469      -0.00005823      -0.00012132      -0.00019786
W        0.00000000       2.15443469       2.15443469       0.00008248       0.00026262      -0.00011421
4
Lattice="4.379519139887889 0.0 0.0 0.0 4.379519139887889 0.0 0.0 0.0 4.379519139887889" Properties=species:S:1:pos:R:3:dft_forces:R:3 dft_energy=-46.98698023 dft_stress="0.25796200912832595 0.257809105923511 0.2578179889204385 9.797596467336992e-05 0.0001437502438932106 4.240024421657071e-05" pbc="T T T"
W        0.00000000       0.00000000       0.00000000       0.00026540       0.00044844      -0.00025111
W        2.18975957       2.18975957       0.00000000      -0.00029300      -0.00007673       0.00002430
W        2.18975957       0.00000000       2.18975957      -0.00022845       0.00014033       0.00028736
W        0.00000000       2.18975957       2.18975957       0.00025605      -0.00051204      -0.00006055
2
Lattice="3.18554 -0.0096840416 0.0 -0.0096840416 3.18554 0.0 0.0 0.0 3.185569439758535" Properties=species:S:1:pos:R:3:dft_forces:R:3 dft_energy=-25.90735872 dft_stress="0.0006195375 0.0006195375 0.00068615625 -0.0 -0.0 -0.0053892625" pbc="T T T"
W        0.00000000       0.00000000       0.00000000      -0.00000000       0.00000000       0.00000000
W        1.58793000       1.58793000       1.59278000       0.00000000      -0.00000000       0.00000000
2
Lattice="3.18554 0.0096840416 0.0 0.0096840416 3.18554 0.0 0.0 0.0 3.185569439758535" Properties=species:S:1:pos:R:3:dft_forces:R:3 dft_energy=-25.90735872 dft_stress="0.00061954375 0.00061954375 0.00068615625 -0.0 -0.0 0.0053892687500000005" pbc="T T T"
W        0.00000000       0.00000000       0.00000000      -0.00000000       0.00000000       0.00000000
W        1.59761000       1.59761000       1.59278000       0.00000000      -0.00000000      -0.00000000
2
Lattice="3.1885981184000003 0.0 0.0 0.0 3.1824818816000002 0.0 0.0 0.0 3.18554293579637" Properties=species:S:1:pos:R:3:dft_forces:R:3 dft_energy=-25.90782369 dft_stress="0.00261461875 -0.0012120125 0.0007026562499999999 0.0 -0.0 -0.0" pbc="T T T"
W        0.00000000       0.00000000       0.00000000       0.00000000       0.00000000      -0.00000000
W        1.59430000       1.59124000       1.59277000      -0.00000000      -0.00000000       0.00000000
2
Lattice="3.1620944256 0.0 0.0 0.0 3.1620944256 0.0 0.0 0.0 3.1620944256" Properties=species:S:1:pos:R:3:dft_forces:R:3 dft_energy=-25.89264429 dft_stress="-0.043637387500000006 -0.043637387500000006 -0.043637387500000006 -0.0 -0.0 -0.0" pbc="T T T"
W        0.00000000       0.00000000       0.00000000       0.00000000       0.00000000       0.00000000
W        1.58105000       1.58105000       1.58105000      -0.00000000      -0.00000000      -0.00000000
2
Lattice="3.190636864 0.0 0.0 0.0 3.180443136 0.0 0.0 0.0 3.1855481550032767" Properties=species:S:1:pos:R:3:dft_forces:R:3 dft_energy=-25.90771869 dft_stress="0.0038831187499999997 -0.00249715 0.0006958 -0.0 -0.0 -0.0" pbc="T T T"
W        0.00000000       0.00000000       0.00000000       0.00000000      -0.00000000      -0.00000000
W        1.59532000       1.59022000       1.59277000      -0.00000000       0.00000000       0.00000000
2
Lattice="3.1784043904 0.0 0.0 0.0 3.1784043904 0.0 0.0 0.0 3.1784043904" Properties=species:S:1:pos:R:3:dft_forces:R:3 dft_energy=-25.90652508 dft_stress="-0.012295425 -0.012295425 -0.012295425 -0.0 0.0 0.0" pbc="T T T"
W        0.00000000       0.00000000       0.00000000       0.00000000      -0.00000000       0.00000000
W        1.58920000       1.58920000       1.58920000      -0.00000000       0.00000000      -0.00000000
2
Lattice="3.18554 -0.007645296 0.0 -0.007645296 3.18554 0.0 0.0 0.0 3.1855583488160892" Properties=species:S:1:pos:R:3:dft_forces:R:3 dft_energy=-25.90755686 dft_stress="0.0006506375000000001 0.0006506375000000001 0.0006948312500000001 -0.0 -0.0 -0.00425215625" pbc="T T T"
W        0.00000000       0.00000000       0.00000000       0.00000000       0.00000000      -0.00000000
W        1.58895000       1.58895000       1.59278000      -0.00000000      -0.00000000       0.00000000
2
Lattice="3.18554 -0.0107034144 0.0 -0.0107034144 3.18554 0.0 0.0 0.0 3.1855759638784016" Properties=species:S:1:pos:R:3:dft_forces:R:3 dft_energy=-25.90724328 dft_stress="0.00060224375 0.00060224375 0.00068093125 -0.0 -0.0 -0.0059590125" pbc="T T T"
W        0.00000000       0.00000000       0.00000000      -0.00000000       0.00000000      -0.00000000
W        1.58742000       1.58742000       1.59279000       0.00000000      -0.00000000       0.00000000
2
Lattice="3.1865593728000006 0.0 0.0 0.0 3.1845206272 0.0 0.0 0.0 3.1855403261993294" Properties=species:S:1:pos:R:3:dft_forces:R:3 dft_energy=-25.90787629 dft_stress="0.0013427312499999999 6.848125e-05 0.00070583125 0.0 -0.0 -0.0" pbc="T T T"
W        0.00000000       0.00000000       0.00000000       0.00000000      -0.00000000       0.00000000
W        1.59328000       1.59226000       1.59277000      -0.00000000       0.00000000      -0.00000000
2
Lattice="3.1885981184000003 0.0 0.0 0.0 3.1885981184000003 0.0 0.0 0.0 3.1885981184000003" Properties=species:S:1:pos:R:3:dft_forces:R:3 dft_energy=-25.90760971 dft_stress="0.00615278125 0.00615278125 0.00615278125 -0.0 0.0 -0.0" pbc="T T T"
W        0.00000000       0.00000000       0.00000000       0.00000000      -0.00000000       0.00000000
W        1.59430000       1.59430000       1.59430000      -0.00000000       0.00000000      -0.00000000
2
Lattice="3.18554 -0.0117227872 0.0 -0.0117227872 3.18554 0.0 0.0 0.0 3.1855831404411212" Properties=species:S:1:pos:R:3:dft_forces:R:3 dft_energy=-25.90711607 dft_stress="0.0005835125 0.0005835125 0.0006747125 -0.0 -0.0 -0.0065298875000000004" pbc="T T T"
W        0.00000000       0.00000000       0.00000000       0.00000000       0.00000000       0.00000000
W        1.58691000       1.58691000       1.59279000      -0.00000000      -0.00000000      -0.00000000
2
Lattice="3.1763656448 0.0 0.0 0.0 3.1947143552 0.0 0.0 0.0 3.1855664223621343" Properties=species:S:1:pos:R:3:dft_forces:R:3 dft_energy=-25.90735253 dft_stress="-0.0050868250000000005 0.0064071 0.00066989375 -0.0 -0.0 -0.0" pbc="T T T"
W        0.00000000       0.00000000       0.00000000      -0.00000000      -0.00000000      -0.00000000
W        1.58818000       1.59736000       1.59278000       0.00000000       0.00000000       0.00000000
2
Lattice="3.1865593728000006 0.0 0.0 0.0 3.1865593728000006 0.0 0.0 0.0 3.1865593728000006" Properties=species:S:1:pos:R:3:dft_forces:R:3 dft_energy=-25.90784785 dft_stress="0.00252853125 0.00252853125 0.00252853125 -0.0 0.0 -0.0" pbc="T T T"
W        0.00000000       0.00000000       0.00000000      -0.00000000      -0.00000000      -0.00000000
W        1.59328000       1.59328000       1.59328000       0.00000000       0.00000000       0.00000000
2
Lattice="3.1620944256 0.0 0.0 0.0 3.2089855744 0.0 0.0 0.0 3.1857125687755654" Properties=species:S:1:pos:R:3:dft_forces:R:3 dft_energy=-25.90440688 dft_stress="-0.01434269375 0.01519321875 0.0004648 -0.0 -0.0 -0.0" pbc="T T T"
W        0.00000000       0.00000000       0.00000000      -0.00000000       0.00000000      -0.00000000
W        1.58105000       1.60449000       1.59286000       0.00000000       0.00000000       0.00000000
2
Lattice="3.18554 0.007645296 0.0 0.007645296 3.18554 0.0 0.0 0.0 3.1855583488160892" Properties=species:S:1:pos:R:3:dft_forces:R:3 dft_energy=-25.90755686 dft_stress="0.0006506437499999999 0.0006506437499999999 0.0006948312500000001 -0.0 -0.0 0.00425215" pbc="T T T"
W        0.00000000       0.00000000       0.00000000      -0.00000000      -0.00000000       0.00000000
W        1.59659000       1.59659000       1.59278000       0.00000000       0.00000000      -0.00000000
2
Lattice="3.18554 0.0045871776 0.0 0.0045871776 3.18554 0.0 0.0 0.0 3.1855466055494412" Properties=species:S:1:pos:R:3:dft_forces:R:3 dft_energy=-25.90776445 dft_stress="0.0006864125 0.0006864125 0.00070275 -0.0 -0.0 0.0025494812500000004" pbc="T T T"
W        0.00000000       0.00000000       0.00000000      -0.00000000      -0.00000000      -0.00000000
W        1.59506000       1.59506000       1.59277000       0.00000000       0.00000000       0.00000000
2
Lattice="3.2069468288 0.0 0.0 0.0 3.1641331712 0.0 0.0 0.0 3.185683860386041" Properties=species:S:1:pos:R:3:dft_forces:R:3 dft_energy=-25.90498744 dft_stress="0.01394341875 -0.013003743750000001 0.00050458125 -0.0 -0.0 -0.0" pbc="T T T"
W        0.00000000       0.00000000       0.00000000       0.00000000       0.00000000       0.00000000
W        1.60347000       1.58207000       1.59284000      -0.00000000      -0.00000000      -0.00000000
2
Lattice="3.18554 0.0035678048 0.0 0.0035678048 3.18554 0.0 0.0 0.0 3.1855439959463885" Properties=species:S:1:pos:R:3:dft_forces:R:3 dft_energy=-25.90781094 dft_stress="0.00069408125 0.00069408125 0.0007040687499999999 -0.0 -0.0 0.001982625" pbc="T T T"
W        0.00000000       0.00000000       0.00000000       0.00000000       0.00000000      -0.00000000
W        1.59455000       1.59455000       1.59277000      -0.00000000      -0.00000000       0.00000000
2
Lattice="3.180443136 0.0 0.0 0.0 3.180443136 0.0 0.0 0.0 3.180443136" Properties=species:S:1:pos:R:3:dft_forces:R:3 dft_energy=-25.90719892 dft_stress="-0.008539 -0.008539 -0.008539 -0.0 0.0 -0.0" pbc="T T T"
W        0.00000000       0.00000000       0.00000000       0.00000000       0.00000000       0.00000000
W        1.59022000       1.59022000       1.59022000      -0.00000000      -0.00000000      -0.00000000
2
Lattice="3.1926756096 0.0 0.0 0.0 3.1784043904 0.0 0.0 0.0 3.185555983845705" Properties=species:S:1:pos:R:3:dft_forces:R:3 dft_energy=-25.90756148 dft_stress="0.00514653125 -0.003789525 0.000684875 0.0 -0.0 -0.0" pbc="T T T"
W        0.00000000       0.00000000       0.00000000       0.00000000       0.00000000       0.00000000
W        1.59634000       1.58920000       1.59278000      -0.00000000       0.00000000       0.00000000
2
Lattice="3.1661719168 0.0 0.0 0.0 3.2049080832000003 0.0 0.0 0.0 3.1856577622991042" Properties=species:S:1:pos:R:3:dft_forces:R:3 dft_energy=-25.90551501 dft_stress="-0.01166950625 0.01269145625 0.0005415062500000001 -0.0 -0.0 -0.0" pbc="T T T"
W        0.00000000       0.00000000       0.00000000       0.00000000      -0.00000000       0.00000000
W        1.58309000       1.60245000       1.59283000      -0.00000000       0.00000000      -0.00000000
2
Lattice="3.18554 0.0066259232 0.0 0.0066259232 3.18554 0.0 0.0 0.0 3.1855537819798823" Properties=species:S:1:pos:R:3:dft_forces:R:3 dft_energy=-25.9076368 dft_stress="0.0006643875000000001 0.0006643875000000001 0.00069809375 -0.0 -0.0 0.0036842437500000003" pbc="T T T"
W        0.00000000       0.00000000       0.00000000       0.00000000      -0.00000000       0.00000000
W        1.59608000       1.59608000       1.59278000      -0.00000000       0.00000000      -0.00000000
2
Lattice="3.18554 0.0086646688 0.0 0.0086646688 3.18554 0.0 0.0 0.0 3.1855635680735017" Properties=species:S:1:pos:R:3:dft_forces:R:3 dft_energy=-25.90746309 dft_stress="0.00063578125 0.00063578125 0.0006907437499999999 -0.0 -0.0 0.0048202" pbc="T T T"
W        0.00000000       0.00000000       0.00000000       0.00000000       0.00000000      -0.00000000
W        1.59710000       1.59710000       1.59278000      -0.00000000      -0.00000000       0.00000000
2
Lattice="3.18554 -0.0015290592 0.0 -0.0015290592 3.18554 0.0 0.0 0.0 3.185540733948585" Properties=species:S:1:pos:R:3:dft_forces:R:3 dft_energy=-25.90787008 dft_stress="0.0007039875 0.0007039875 0.00070578125 -0.0 -0.0 -0.0008491937500000001" pbc="T T T"
W        0.00000000       0.00000000       0.00000000      -0.00000000       0.00000000       0.00000000
W        1.59201000       1.59201000       1.59277000       0.00000000       0.00000000      -0.00000000
2
Lattice="3.1947143552 0.0 0.0 0.0 3.1763656448 0.0 0.0 0.0 3.1855664223621343" Properties=species:S:1:pos:R:3:dft_forces:R:3 dft_energy=-25.90735253 dft_stress="0.0064070937500000005 -0.0050868187499999995 0.00066989375 -0.0 -0.0 -0.0" pbc="T T T"
W        0.00000000       0.00000000       0.00000000       0.00000000       0.00000000      -0.00000000
W        1.59736000       1.58818000       1.59278000      -0.00000000       0.00000000       0.00000000
2
Lattice="3.200830592 0.0 0.0 0.0 3.200830592 0.0 0.0 0.0 3.200830592" Properties=species:S:1:pos:R:3:dft_forces:R:3 dft_energy=-25.90153262 dft_stress="0.0271954125 0.0271954125 0.0271954125 0.0 0.0 0.0" pbc="T T T"
W        0.00000000       0.00000000       0.00000000       0.00000000      -0.00000000      -0.00000000
W        1.60042000       1.60042000       1.60042000      -0.00000000       0.00000000       0.00000000
2
Lattice="3.21102432 0.0 0.0 0.0 3.21102432 0.0 0.0 0.0 3.21102432" Properties=species:S:1:pos:R:3:dft_forces:R:3 dft_energy=-25.89054239 dft_stress="0.043886062499999996 0.043886062499999996 0.043886062499999996 -0.0 -0.0 -0.0" pbc="T T T"
W        0.00000000       0.00000000       0.00000000       0.00000000       0.00000000       0.00000000
W        1.60551000       1.60551000       1.60551000      -0.00000000      -0.00000000      -0.00000000
2
Lattice="3.2089855744 0.0 0.0 0.0 3.2089855744 0.0 0.0 0.0 3.2089855744" Properties=species:S:1:pos:R:3:dft_forces:R:3 dft_energy=-25.8931623 dft_stress="0.040606275 0.040606275 0.040606275 -0.0 0.0 -0.0" pbc="T T T"
W        0.00000000       0.00000000       0.00000000       0.00000000       0.00000000       0.00000000
W        1.60449000       1.60449000       1.60449000      -0.00000000      -0.00000000      -0.00000000
2
Lattice="3.2069468288 0.0 0.0 0.0 3.2069468288 0.0 0.0 0.0 3.2069468288" Properties=species:S:1:pos:R:3:dft_forces:R:3 dft_energy=-25.89557567 dft_stress="0.037298025 0.037298025 0.037298025 -0.0 -0.0 -0.0" pbc="T T T"
W        0.00000000       0.00000000       0.00000000      -0.00000000      -0.00000000      -0.00000000
W        1.60347000       1.60347000       1.60347000       0.00000000       0.00000000       0.00000000
2
Lattice="3.1743268992 0.0 0.0 0.0 3.1743268992 0.0 0.0 0.0 3.1743268992" Properties=species:S:1:pos:R:3:dft_forces:R:3 dft_energy=-25.90448574 dft_stress="-0.0199123 -0.0199123 -0.0199123 0.0 0.0 0.0" pbc="T T T"
W        0.00000000       0.00000000       0.00000000      -0.00000000       0.00000000      -0.00000000
W        1.58716000       1.58716000       1.58716000       0.00000000      -0.00000000       0.00000000
2
Lattice="3.21102432 0.0 0.0 0.0 3.16005568 0.0 0.0 0.0 3.185743887608807" Properties=species:S:1:pos:R:3:dft_forces:R:3 dft_energy=-25.90377285 dft_stress="0.01644174375 -0.01568609375 0.00042301875000000003 -0.0 -0.0 -0.0" pbc="T T T"
W        0.00000000       0.00000000       0.00000000      -0.00000000      -0.00000000      -0.00000000
W        1.60551000       1.58003000       1.59287000       0.00000000       0.00000000       0.00000000
2
Lattice="3.190636864 0.0 0.0 0.0 3.190636864 0.0 0.0 0.0 3.190636864" Properties=species:S:1:pos:R:3:dft_forces:R:3 dft_energy=-25.90714537 dft_stress="0.009741762499999999 0.009741762499999999 0.009741762499999999 0.0 -0.0 -0.0" pbc="T T T"
W        0.00000000       0.00000000       0.00000000      -0.00000000       0.00000000      -0.00000000
W        1.59532000       1.59532000       1.59532000       0.00000000      -0.00000000       0.00000000
2
Lattice="3.2049080832000003 0.0 0.0 0.0 3.1661719168 0.0 0.0 0.0 3.1856577622991042" Properties=species:S:1:pos:R:3:dft_forces:R:3 dft_energy=-25.90551501 dft_stress="0.012691462499999999 -0.01166950625 0.000541525 -0.0 -0.0 -0.0" pbc="T T T"
W        0.00000000       0.00000000       0.00000000       0.00000000       0.00000000       0.00000000
W        1.60245000       1.58309000       1.59283000      -0.00000000      -0.00000000      -0.00000000
2
Lattice="3.1641331712 0.0 0.0 0.0 3.1641331712 0.0 0.0 0.0 3.1641331712" Properties=species:S:1:pos:R:3:dft_forces:R:3 dft_energy=-25.89521835 dft_stress="-0.03959111875 -0.03959111875 -0.03959111875 0.0 0.0 -0.0" pbc="T T T"
W        0.00000000       0.00000000       0.00000000       0.00000000       0.00000000       0.00000000
W        1.58207000       1.58207000       1.58207000      -0.00000000      -0.00000000      -0.00000000
2
Lattice="3.1661719168 0.0 0.0 0.0 3.1661719168 0.0 0.0 0.0 3.1661719168" Properties=species:S:1:pos:R:3:dft_forces:R:3 dft_energy=-25.89755204 dft_stress="-0.03558359375 -0.03558359375 -0.03558359375 0.0 0.0 0.0" pbc="T T T"
W        0.00000000       0.00000000       0.00000000       0.00000000      -0.00000000       0.00000000
W        1.58309000       1.58309000       1.58309000      -0.00000000       0.00000000      -0.00000000
2
Lattice="3.18554 -0.0035678048 0.0 -0.0035678048 3.18554 0.0 0.0 0.0 3.1855439959463885" Properties=species:S:1:pos:R:3:dft_forces:R:3 dft_energy=-25.90781094 dft_stress="0.0006940875000000001 0.0006940875000000001 0.0007040625 -0.0 -0.0 -0.0019825999999999997" pbc="T T T"
W        0.00000000       0.00000000       0.00000000       0.00000000      -0.00000000       0.00000000
W        1.59099000       1.59099000       1.59277000      -0.00000000       0.00000000      -0.00000000
2
Lattice="3.18554 0.0005096864 0.0 0.0005096864 3.18554 0.0 0.0 0.0 3.185540081549826" Properties=species:S:1:pos:R:3:dft_forces:R:3 dft_energy=-25.90788139 dft_stress="0.00070635 0.00070635 0.00070618125 -0.0 -0.0 0.00028255" pbc="T T T"
W        0.00000000       0.00000000       0.00000000       0.00000000      -0.00000000      -0.00000000
W        1.59302000       1.59302000       1.59277000      -0.00000000       0.00000000       0.00000000
2
Lattice="3.200830592 0.0 0.0 0.0 3.170249408 0.0 0.0 0.0 3.1856133965326565" Properties=species:S:1:pos:R:3:dft_forces:R:3 dft_energy=-25.90640894 dft_stress="0.01018124375 -0.00901834375 0.0006033625 -0.0 -0.0 -0.0" pbc="T T T"
W        0.00000000       0.00000000       0.00000000       0.00000000      -0.00000000       0.00000000
W        1.60042000       1.58512000       1.59281000      -0.00000000       0.00000000      -0.00000000
2