1208
Lattice="119.55173308782403 0.0 0.0 0.0 112.90997013850048 0.0 0.0 0.0 3.3208814746617787" Properties=species:S:1:pos:R:3:fix_mask:L:1:forces:R:3 energy=-12040.965985770135 pbc="T T T"
Nb      16.37221778      43.92518575       1.66044074  T       0.00000000       0.00000000       0.00000000
Nb      16.30186414      47.23610764       1.66044074  T       0.00000000       0.00000000       0.00000000
Nb      14.58153006      48.88900328       0.00000000  T       0.00000000       0.00000000       0.00000000
Nb      16.18559906      50.54561473       1.66044074  T       0.00000000       0.00000000       0.00000000
Nb      14.43006987      52.19876095       0.00000000  T       0.00000000       0.00000000       0.00000000
Nb      15.98886680      53.85577812       1.66044074  T       0.00000000       0.00000000       0.00000000
Nb      14.19241329      55.51200323       0.00000000  T       0.00000000       0.00000000       0.00000000
Nb      19.02794808      57.17549353       1.66044074  T       0.00000000       0.00000000       0.00000000
Nb      17.23110187      58.83754820       0.00000000  T       0.00000000       0.00000000       0.00000000
Nb      18.76698185      60.50445981       1.66044074  T       0.00000000       0.00000000       0.00000000
Nb      17.02717361      62.16894839       0.00000000  T       0.00000000       0.00000000       0.00000000
Nb      18.61022755      63.83730202       1.66044074  T       0.00000000       0.00000000       0.00000000
Nb      16.90827264      65.50119446       0.00000000  T       0.00000000       0.00000000       0.00000000
Nb      18.52031753      67.16916901       1.66044074  T       0.00000000       0.00000000       0.00000000
Nb      18.46492283      70.49935639       1.66044074  T       0.00000000       0.00000000       0.00000000
Nb      19.78168301      37.30433911       1.66044074  T       0.00000000       0.00000000       0.00000000
Nb      18.10152111      38.95860673       0.00000000  T       0.00000000       0.00000000       0.00000000
Nb      19.75199417      40.61788882       1.66044074  T       0.00000000       0.00000000       0.00000000
Nb      18.06488457      42.27161259       0.00000000  T       0.00000000       0.00000000       0.00000000
Nb      19.70874126      43.93012290       1.66044074  T       0.00000000       0.00000000       0.00000000
Nb      18.01000052      45.58318343       0.00000000  T       0.00000000       0.00000000       0.00000000
Nb      19.64119353      47.24068835       1.66044074  T       0.00000000       0.00000000       0.00000000
Nb      17.92155928      48.89308008       0.00000000  T       0.00000000       0.00000000       0.00000000
Nb      19.52679732      50.54950635       1.66044074  T       0.00000000       0.00000000       0.00000000
Nb      17.76925312      52.20194864       0.00000000  T       0.00000000       0.00000000       0.00000000
Nb      19.32460973      53.85854496       1.66044074  T       0.00000000       0.00000000       0.00000000
Nb      17.51897741      55.51422061       0.00000000  T       0.00000000       0.00000000       0.00000000
Nb      22.34294089      57.17795040       1.66044074  T       0.00000000       0.00000000       0.00000000
Nb      20.53698679      58.84033462       0.00000000  T       0.00000000       0.00000000       0.00000000
Nb      22.06710181      60.50804714       1.66044074  T       0.00000000       0.00000000       0.00000000
Nb      20.32724315      62.17287195       0.00000000  T       0.00000000       0.00000000       0.00000000
Nb      21.91039287      63.84186619       1.66044074  T       0.00000000       0.00000000       0.00000000
Nb      20.21038097      65.50581037       0.00000000  T       0.00000000       0.00000000       0.00000000
Nb      21.82363252      67.17422928       1.66044074  T       0.00000000       0.00000000       0.00000000
Nb      20.14204421      68.83700441       0.00000000  T       0.00000000       0.00000000       0.00000000
Nb      21.77111756      70.50466715       1.66044074  T       0.00000000       0.00000000       0.00000000
Nb      20.09852013      72.16652278       0.00000000  T       0.00000000       0.00000000       0.00000000
Nb      21.73653165      73.83354956       1.66044074  T       0.00000000       0.00000000       0.00000000
Nb      20.06873701      75.49472237       0.00000000  T       0.00000000       0.00000000       0.00000000
Nb      21.71222338      77.16124706       1.66044074  T       0.00000000       0.00000000       0.00000000
Nb      23.14915553      30.68023102       1.66044074  T       0.00000000       0.00000000       0.00000000
Nb      21.47697465      32.33502013       0.00000000  T       0.00000000       0.00000000       0.00000000
Nb      23.13409606      33.99554996       1.66044074  T       0.00000000       0.00000000       0.00000000
Nb      21.45903108      35.64997881       0.00000000  T       0.00000000       0.00000000       0.00000000
Nb      23.11409787      37.31005365       1.66044074  T       0.00000000       0.00000000       0.00000000
Nb      21.43476045      38.96402802       0.00000000  T       0.00000000       0.00000000       0.00000000
Nb      23.08637230      40.62350059       1.66044074  T       0.00000000       0.00000000       0.00000000
Nb      21.40030710      42.27689343       0.00000000  T       0.00000000       0.00000000       0.00000000
Nb      23.04569191      43.93555055       1.66044074  T       0.00000000       0.00000000       0.00000000
Nb      21.34819890      45.58820802       0.00000000  T       0.00000000       0.00000000       0.00000000
Nb      22.98134544      47.24576306       1.66044074  T       0.00000000       0.00000000       0.00000000
Nb      21.26272712      48.89760538       0.00000000  T       0.00000000       0.00000000       0.00000000
Nb      22.86960518      50.55386301       1.66044074  T       0.00000000       0.00000000       0.00000000
Nb      21.11037054      52.20550801       0.00000000  T       0.00000000       0.00000000       0.00000000
Nb      22.66243141      53.86162159       1.66044074  T       0.00000000       0.00000000       0.00000000
Nb      20.84643678      55.51662561       0.00000000  T       0.00000000       0.00000000       0.00000000
Nb      25.65683691      57.18063796       1.66044074  T       0.00000000       0.00000000       0.00000000
Nb      23.84066842      58.84343580       0.00000000  T       0.00000000       0.00000000       0.00000000
Nb      25.36490713      60.51209759       1.66044074  T       0.00000000       0.00000000       0.00000000
Nb      23.62564023      62.17726928       0.00000000  T       0.00000000       0.00000000       0.00000000
Nb      25.20935327      63.84697001       1.66044074  T       0.00000000       0.00000000       0.00000000
Nb      23.51165876      65.51092625       0.00000000  T       0.00000000       0.00000000       0.00000000
Nb      25.12636632      67.17982964       1.66044074  T       0.00000000       0.00000000       0.00000000
Nb      23.44666943      68.84246683       0.00000000  T       0.00000000       0.00000000       0.00000000
Nb      25.07700855      70.51050820       1.66044074  T       0.00000000       0.00000000       0.00000000
Nb      23.40579483      72.17216319       0.00000000  T       0.00000000       0.00000000       0.00000000
Nb      25.04479343      73.83951695       1.66044074  T       0.00000000       0.00000000       0.00000000
Nb      23.37801666      75.50046069       0.00000000  T       0.00000000       0.00000000       0.00000000
Nb      25.02226776      77.16728444       1.66044074  T       0.00000000       0.00000000       0.00000000
Nb      23.35801444      78.82770191       0.00000000  T       0.00000000       0.00000000       0.00000000
Nb      25.00569137      80.49411223       1.66044074  T       0.00000000       0.00000000       0.00000000
Nb      26.48969421      27.37063795       1.66044074  T       0.00000000       0.00000000       0.00000000
Nb      24.81999265      29.02542980       0.00000000  T       0.00000000       0.00000000       0.00000000
Nb      26.47893297      30.68658687       1.66044074  T       0.00000000       0.00000000       0.00000000
Nb      24.80728941      32.34107757       0.00000000  T       0.00000000       0.00000000       0.00000000
Nb      26.46508584      34.00187696       1.66044074  T       0.00000000       0.00000000       0.00000000
Nb      24.79069754      35.65599350       0.00000000  T       0.00000000       0.00000000       0.00000000
Nb      26.44664724      37.31632777       1.66044074  T       0.00000000       0.00000000       0.00000000
Nb      24.76817876      38.96996814       0.00000000  T       0.00000000       0.00000000       0.00000000
Nb      26.42097802      40.62968010       1.66044074  T       0.00000000       0.00000000       0.00000000
Nb      24.73604027      42.28270121       0.00000000  T       0.00000000       0.00000000       0.00000000
Nb      26.37754645      43.93072856       1.66044074  F       0.00036564      -0.00020979       0.00000000
Nb      24.68698113      45.59376763       0.00000000  T       0.00000000       0.00000000       0.00000000
Nb      26.30862838      47.23616125       1.66044074  F       0.00018995      -0.00010534      -0.00000000
Nb      24.58548293      48.89072362      -0.00000000  F      -0.00003659       0.00022362       0.00000000
Nb      26.17262354      50.54652948       1.66044074  F       0.00002844      -0.00047237      -0.00000000
Nb      24.41984987      52.20498862       0.00000000  F       0.00034576      -0.00012370       0.00000000
Nb      25.95192868      53.87005600       1.66044074  F       0.00013658      -0.00048984       0.00000000
Nb      24.15424931      55.52738895       0.00000000  F       0.00063032       0.00007332      -0.00000000
Nb      28.96684502      57.21207059       1.66044074  F      -0.00041039      -0.00015770       0.00000000
Nb      27.16100112      58.86491919      -0.00000000  F       0.00003453      -0.00038555       0.00000000
Nb      28.69403909      60.53268243       1.66044074  F      -0.00018398      -0.00070148      -0.00000000
Nb      26.93186585      62.18468319      -0.00000000  F       0.00011384      -0.00047477      -0.00000000
Nb      28.51618381      63.85413171       1.66044074  F       0.00037662      -0.00094296       0.00000000
Nb      26.81210778      65.51663353       0.00000000  T       0.00000000       0.00000000       0.00000000
Nb      28.42417041      67.18555031       1.66044074  F      -0.00022094      -0.00072035      -0.00000000
Nb      26.75088754      68.84851084       0.00000000  T       0.00000000       0.00000000       0.00000000
Nb      28.38261227      70.51697705       1.66044074  T       0.00000000       0.00000000       0.00000000
Nb      26.71284972      72.17837430       0.00000000  T       0.00000000       0.00000000       0.00000000
Nb      28.35289528      73.84610124       1.66044074  T       0.00000000       0.00000000       0.00000000
Nb      26.68716830      75.50676075       0.00000000  T       0.00000000       0.00000000       0.00000000
Nb      28.33221725      77.17392987       1.66044074  T       0.00000000       0.00000000       0.00000000
Nb      26.66874833      78.83405059       0.00000000  T       0.00000000       0.00000000       0.00000000
Nb      28.31704699      80.50078927       1.66044074  T       0.00000000       0.00000000       0.00000000
Nb      26.65492751      82.16050345       0.00000000  T       0.00000000       0.00000000       0.00000000
Nb      28.30546546      83.82690095       1.66044074  T       0.00000000       0.00000000       0.00000000
Nb      26.64419266      85.48629967       0.00000000  T       0.00000000       0.00000000       0.00000000
Nb      28.29634656      87.15241983       1.66044074  T       0.00000000       0.00000000       0.00000000
Nb      29.82633174      24.06116906       1.66044074  T       0.00000000       0.00000000       0.00000000
Nb      28.15842830      25.71587709       0.00000000  T       0.00000000       0.00000000       0.00000000
Nb      29.81853586      27.37765160       1.66044074  T       0.00000000       0.00000000       0.00000000
Nb      28.14928093      29.03210310       0.00000000  T       0.00000000       0.00000000       0.00000000
Nb      29.80875757      30.69359421       1.66044074  T       0.00000000       0.00000000       0.00000000
Nb      28.13766762      32.34773390       0.00000000  T       0.00000000       0.00000000       0.00000000
Nb      29.79615129      34.00886317       1.66044074  T       0.00000000       0.00000000       0.00000000
Nb      28.12246520      35.66261424       0.00000000  T       0.00000000       0.00000000       0.00000000
Nb      29.77503568      37.31634617       1.66044074  F       0.00026473       0.00014177      -0.00000000
Nb      28.10176494      38.97652250       0.00000000  T       0.00000000       0.00000000       0.00000000
Nb      29.76002724      40.62370465       1.66044074  F       0.00009265      -0.00025910       0.00000000
Nb      28.07208702      42.27734487       0.00000000  F       0.00028665       0.00006421       0.00000000
Nb      29.72058598      43.92737705       1.66044074  F      -0.00014426      -0.00042565      -0.00000000
Nb      28.01831200      45.57956381      -0.00000000  F      -0.00005093      -0.00038576       0.00000000
Nb      29.63766067      47.23415104       1.66044074  F       0.00015193      -0.00027925       0.00000000
Nb      27.91032467      48.89000733      -0.00000000  F      -0.00009294      -0.00043269       0.00000000
Nb      29.48510593      50.55055937       1.66044074  F       0.00016924       0.00023046       0.00000000
Nb      27.72590036      52.21017055      -0.00000000  F      -0.00021489      -0.00062667       0.00000000
Nb      29.25485491      53.87829563       1.66044074  F      -0.00010752       0.00025449      -0.00000000
Nb      27.46420852      55.53914667      -0.00000000  F       0.00011342      -0.00074146       0.00000000
Nb      32.27845602      57.21317218       1.66044074  F       0.00023584      -0.00011231       0.00000000
Nb      30.48182102      58.87730587      -0.00000000  F       0.00032634       0.00046491       0.00000000
Nb      32.01479515      60.54049464       1.66044074  F       0.00019366       0.00062362       0.00000000
Nb      30.25212993      62.19841494       0.00000000  F      -0.00041146      -0.00001018      -0.00000000
Nb      31.82826692      63.86520645       1.66044074  F      -0.00007877       0.00014501      -0.00000000
Nb      30.11565519      65.52395447      -0.00000000  F      -0.00031862      -0.00009700      -0.00000000
Nb      31.72727847      67.19412127       1.66044074  F      -0.00036218      -0.00028040       0.00000000
Nb      30.04900566      68.85515114      -0.00000000  F      -0.00008426      -0.00015058       0.00000000
Nb      31.67936697      70.52640187       1.66044074  F      -0.00016205      -0.00028397       0.00000000
Nb      30.01182445      72.18830668       0.00000000  F      -0.00008515      -0.00020708      -0.00000000
Nb      31.65346576      73.85626079       1.66044074  F      -0.00009573      -0.00030501       0.00000000
Nb      29.99620347      75.51373088       0.00000000  T       0.00000000       0.00000000       0.00000000
Nb      31.64208259      77.18130669       1.66044074  T       0.00000000       0.00000000       0.00000000
Nb      29.97941257      78.84106030       0.00000000  T       0.00000000       0.00000000       0.00000000
Nb      31.62835276      80.50818811       1.66044074  T       0.00000000       0.00000000       0.00000000
Nb      29.96684486      82.16753057       0.00000000  T       0.00000000       0.00000000       0.00000000
Nb      31.61789206      83.83430462       1.66044074  T       0.00000000       0.00000000       0.00000000
Nb      29.95710049      85.49333019       0.00000000  T       0.00000000       0.00000000       0.00000000
Nb      31.60966828      87.15981684       1.66044074  T       0.00000000       0.00000000       0.00000000
Nb      29.94933350      88.81859240       0.00000000  T       0.00000000       0.00000000       0.00000000
Nb      31.60304051      90.48483970       1.66044074  T       0.00000000       0.00000000       0.00000000
Nb      33.16007555      20.75200146       1.66044074  T       0.00000000       0.00000000       0.00000000
Nb      31.49351666      22.40653617       0.00000000  T       0.00000000       0.00000000       0.00000000
Nb      33.15438733      24.06894850       1.66044074  T       0.00000000       0.00000000       0.00000000
Nb      31.48686065      25.72325799       0.00000000  T       0.00000000       0.00000000       0.00000000
Nb      33.14739946      27.38544528       1.66044074  T       0.00000000       0.00000000       0.00000000
Nb      31.47860283      29.03948788       0.00000000  T       0.00000000       0.00000000       0.00000000
Nb      33.13862134      30.70139170       1.66044074  T       0.00000000       0.00000000       0.00000000
Nb      31.46810141      32.35511036       0.00000000  T       0.00000000       0.00000000       0.00000000
Nb      33.12470373      34.00798037       1.66044074  F       0.00004312       0.00007917       0.00000000
Nb      31.45101034      35.66188121       0.00000000  F       0.00018284       0.00003766      -0.00000000
Nb      33.11499885      37.31693436       1.66044074  F      -0.00025615      -0.00036439      -0.00000000
Nb      31.43933513      38.96920545       0.00000000  F      -0.00016006      -0.00026196      -0.00000000
Nb      33.10054911      40.62358530       1.66044074  F       0.00008807       0.00000624       0.00000000
Nb      31.41523574      42.27558676       0.00000000  F      -0.00000448      -0.00025786       0.00000000
Nb      33.06111402      43.92967370       1.66044074  F       0.00042016       0.00033689      -0.00000000
Nb      31.35478092      45.58115959      -0.00000000  F       0.00005939      -0.00031879      -0.00000000
Nb      32.96889635      47.23796855       1.66044074  F      -0.00001994      -0.00010972       0.00000000
Nb      31.23267383      48.89284540      -0.00000000  F       0.00018171      -0.00004053      -0.00000000
Nb      32.80177338      50.55435352       1.66044074  F       0.00015934      -0.00059731      -0.00000000
Nb      31.03337289      52.21555893       0.00000000  F       0.00005837       0.00060409      -0.00000000
Nb      32.56103490      53.88135221       1.66044074  F       0.00043117      -0.00071007      -0.00000000
Nb      30.76788343      55.54754835       0.00000000  F       0.00041873       0.00047721      -0.00000000
Nb      35.58862079      57.20808897       1.66044074  F       0.00031836       0.00017258       0.00000000
Nb      33.79604973      58.87667750       0.00000000  F       0.00016122      -0.00098976      -0.00000000
Nb      35.32566368      60.54015943       1.66044074  F       0.00026980       0.00025425      -0.00000000
Nb      33.56570581      62.20496935      -0.00000000  F       0.00031246      -0.00085338       0.00000000
Nb      35.13510940      63.87083002       1.66044074  F      -0.00015662       0.00057184       0.00000000
Nb      33.42104337      65.53338023       0.00000000  F       0.00005649      -0.00063315      -0.00000000
Nb      35.02911101      67.20198763       1.66044074  F      -0.00038442       0.00056084       0.00000000
Nb      33.34948044      68.86440752      -0.00000000  F      -0.00032423      -0.00012209       0.00000000
Nb      34.98118456      70.53354910       1.66044074  F      -0.00058530       0.00045589      -0.00000000
Nb      33.31653078      72.19518948       0.00000000  F      -0.00059063       0.00003949       0.00000000
Nb      34.95981668      73.86287018       1.66044074  F      -0.00046672       0.00003797       0.00000000
Nb      33.29921179      75.52363560       0.00000000  F      -0.00028725       0.00005350      -0.00000000
Nb      34.94740161      77.19071450       1.66044074  F      -0.00003604       0.00008382       0.00000000
Nb      33.29001748      78.84887234       0.00000000  T       0.00000000       0.00000000       0.00000000
Nb      34.93961898      80.51647149       1.66044074  T       0.00000000       0.00000000       0.00000000
Nb      33.27872849      82.17534935       0.00000000  T       0.00000000       0.00000000       0.00000000
Nb      34.93029867      83.84258039       1.66044074  T       0.00000000       0.00000000       0.00000000
Nb      33.26999076      85.50114185       0.00000000  T       0.00000000       0.00000000       0.00000000
Nb      34.92298287      87.16807333       1.66044074  T       0.00000000       0.00000000       0.00000000
Nb      33.26303581      88.82638714       0.00000000  T       0.00000000       0.00000000       0.00000000
Nb      34.91709468      90.49306816       1.66044074  T       0.00000000       0.00000000       0.00000000
Nb      34.82608506      19.09758890       0.00000000  T       0.00000000       0.00000000       0.00000000
Nb      36.48745798      20.76069138       1.66044074  T       0.00000000       0.00000000       0.00000000
Nb      34.82122363      22.41475021       0.00000000  T       0.00000000       0.00000000       0.00000000
Nb      36.48244407      24.07767660       1.66044074  T       0.00000000       0.00000000       0.00000000
Nb      34.81530435      25.73149746       0.00000000  T       0.00000000       0.00000000       0.00000000
Nb      36.47627565      27.39420286       1.66044074  T       0.00000000       0.00000000       0.00000000
Nb      34.80794993      29.04774347       0.00000000  T       0.00000000       0.00000000       0.00000000
Nb      36.46625450      30.70036112       1.66044074  F       0.00004831       0.00021181      -0.00000000
Nb      34.79627047      32.35419768      -0.00000000  F       0.00006128       0.00018167      -0.00000000
Nb      36.45973207      34.01174383       1.66044074  F      -0.00033468      -0.00021885       0.00000000
Nb      34.78840454      35.66455167       0.00000000  F      -0.00022927      -0.00028438      -0.00000000
Nb      36.45292449      37.32084716       1.66044074  F      -0.00012774       0.00006160       0.00000000
Nb      34.77906612      38.97234746      -0.00000000  F      -0.00012844      -0.00028040       0.00000000
Nb      36.44098604      40.62877935       1.66044074  F       0.00012788       0.00037776      -0.00000000
Nb      34.75625754      42.27913848      -0.00000000  F       0.00004596       0.00024960       0.00000000
Nb      36.40205386      43.93536754       1.66044074  F      -0.00012409      -0.00032517      -0.00000000
Nb      34.69245931      45.58568024      -0.00000000  F       0.00005701       0.00003995       0.00000000
Nb      36.30421184      47.24214215       1.66044074  F      -0.00002286      -0.00084565      -0.00000000
Nb      34.55939398      48.89620594      -0.00000000  F      -0.00002683       0.00009042       0.00000000
Nb      36.12558399      50.55442404       1.66044074  F      -0.00003621       0.00043321       0.00000000
Nb      34.34729229      52.21612273      -0.00000000  F       0.00007924      -0.00055431       0.00000000
Nb      35.87418017      53.87724447       1.66044074  F      -0.00025616       0.00014986      -0.00000000
Nb      34.07671483      55.54541561      -0.00000000  F      -0.00027963      -0.00113037      -0.00000000
Nb      38.89709549      57.20050084       1.66044074  F      -0.00020091      -0.00055342       0.00000000
Nb      37.10394699      58.87146305       0.00000000  F      -0.00010319      -0.00002732      -0.00000000
Nb      38.62856269      60.53700894       1.66044074  F      -0.00047113      -0.00034944       0.00000000
Nb      36.87108239      62.20562217       0.00000000  F       0.00020976       0.00041787       0.00000000
Nb      38.43544069      63.87354704       1.66044074  F      -0.00005701      -0.00040497      -0.00000000
Nb      36.72304879      65.53867976       0.00000000  F       0.00019921       0.00038023      -0.00000000
Nb      38.32911741      67.20767412       1.66044074  F       0.00002241      -0.00015256      -0.00000000
Nb      36.65064166      68.87104540       0.00000000  F       0.00007513      -0.00011769      -0.00000000
Nb      38.28374981      70.53957320       1.66044074  F      -0.00052328       0.00030123       0.00000000
Nb      36.62070009      72.20176901       0.00000000  F      -0.00048301       0.00008946      -0.00000000
Nb      38.26580715      73.86949414       1.66044074  F      -0.00081068       0.00026528       0.00000000
Nb      36.60687149      75.53011092      -0.00000000  F      -0.00069083       0.00047699      -0.00000000
Nb      38.25579500      77.19761385       1.66044074  F      -0.00034144       0.00044702       0.00000000
Nb      36.59695839      78.85786399      -0.00000000  F       0.00002063       0.00039509       0.00000000
Nb      38.24723125      80.52562128       1.66044074  F       0.00023262       0.00060389      -0.00000000
Nb      36.59058918      82.18414815       0.00000000  T       0.00000000       0.00000000       0.00000000
Nb      38.24269723      83.85194738       1.66044074  T       0.00000000       0.00000000       0.00000000
Nb      36.58287342      85.50991846       0.00000000  T       0.00000000       0.00000000       0.00000000
Nb      38.23630181      87.17740209       1.66044074  T       0.00000000       0.00000000       0.00000000
Nb      36.57674106      88.83513120       0.00000000  T       0.00000000       0.00000000       0.00000000
Nb      38.23116213      90.50234902       1.66044074  T       0.00000000       0.00000000       0.00000000
Nb      36.57175603      92.15988810       0.00000000  T       0.00000000       0.00000000       0.00000000
Nb      38.22694674      93.82687645       1.66044074  T       0.00000000       0.00000000       0.00000000
Nb      39.81839932      17.45311207       1.66044074  T       0.00000000       0.00000000       0.00000000
Nb      38.15316320      19.10680166       0.00000000  T       0.00000000       0.00000000       0.00000000
Nb      39.81481975      20.77055215       1.66044074  T       0.00000000       0.00000000       0.00000000
Nb      38.14892131      22.42401636       0.00000000  T       0.00000000       0.00000000       0.00000000
Nb      39.81048879      24.08760094       1.66044074  T       0.00000000       0.00000000       0.00000000
Nb      38.14374853      25.74080851       0.00000000  T       0.00000000       0.00000000       0.00000000
Nb      39.80263369      27.39466165       1.66044074  F      -0.00013588       0.00035356       0.00000000
Nb      38.13492450      29.04687904       0.00000000  F       0.00020029       0.00032008      -0.00000000
Nb      39.79843420      30.70656876       1.66044074  F      -0.00070843      -0.00016720       0.00000000
Nb      38.12960734      32.35883546       0.00000000  F      -0.00042427      -0.00018685      -0.00000000
Nb      39.79340006      34.01698383       1.66044074  F      -0.00021249       0.00019402      -0.00000000
Nb      38.12395363      35.66896659      -0.00000000  F      -0.00032948       0.00009013       0.00000000
Nb      39.78963347      37.32693607       1.66044074  F      -0.00017929       0.00006057      -0.00000000
Nb      38.11786448      38.97810593      -0.00000000  F      -0.00019413       0.00025168      -0.00000000
Nb      39.78062008      40.63564673       1.66044074  F      -0.00006378      -0.00052395       0.00000000
Nb      38.09735418      42.28561844      -0.00000000  F       0.00038001      -0.00038188       0.00000000
Nb      39.74469559      43.94175302       1.66044074  F       0.00039927      -0.00097901      -0.00000000
Nb      38.03329638      45.59111071      -0.00000000  F       0.00028803      -0.00080281      -0.00000000
Nb      39.64569618      47.24540446       1.66044074  F       0.00038986      -0.00040613       0.00000000
Nb      37.89315933      48.89774185      -0.00000000  F       0.00047039      -0.00027145      -0.00000000
Nb      39.45795284      50.55260653       1.66044074  F      -0.00011260      -0.00017110      -0.00000000
Nb      37.66898668      52.21250978       0.00000000  F       0.00016762      -0.00075834       0.00000000
Nb      39.19323369      53.87052761       1.66044074  F      -0.00051443      -0.00031491       0.00000000
Nb      37.38859370      55.53837760       0.00000000  F       0.00010560      -0.00032607      -0.00000000
Nb      42.20324100      57.19258732       1.66044074  F       0.00041702      -0.00096961       0.00000000
Nb      40.40602901      58.86518182       0.00000000  F       0.00049716       0.00005340      -0.00000000
Nb      41.92326590      60.53383836       1.66044074  F      -0.00054195      -0.00032067       0.00000000
Nb      40.16832355      62.20521591       0.00000000  F       0.00008304       0.00060021      -0.00000000
Nb      41.72899719      63.87649353       1.66044074  F      -0.00064958      -0.00069558      -0.00000000
Nb      40.02081705      65.54294692      -0.00000000  F      -0.00056709       0.00080803       0.00000000
Nb      41.62694256      67.21381513       1.66044074  F      -0.00025448      -0.00018537       0.00000000
Nb      39.95134453      68.87683868       0.00000000  F      -0.00028807       0.00064648       0.00000000
Nb      41.58606260      70.54652521       1.66044074  F       0.00002298      -0.00007086      -0.00000000
Nb      39.92506800      72.20810077      -0.00000000  F      -0.00040963       0.00011395      -0.00000000
Nb      41.57156474      73.87711281       1.66044074  F      -0.00063979       0.00001947       0.00000000
Nb      39.91395365      75.53761349       0.00000000  F      -0.00077545      -0.00009205      -0.00000000
Nb      41.56353012      77.20662393       1.66044074  F      -0.00095778       0.00021008       0.00000000
Nb      39.90564051      78.86584104      -0.00000000  F      -0.00017559       0.00033422       0.00000000