1668
Lattice="119.55173308782788 0.0 0.0 0.0 112.71445489200968 0.0 0.0 0.0 4.696435620500402" Properties=species:S:1:pos:R:3:fix_mask:L:1:forces:R:3 energy=-16620.2714682764 pbc="T T T"
Nb      15.49154018      45.71538102       2.34821781  T       0.00000000       0.00000000       0.00000000
Nb      15.42896964      48.05394384      -0.00000000  T       0.00000000       0.00000000       0.00000000
Nb      15.34040708      50.39189552       2.34821781  T       0.00000000       0.00000000       0.00000000
Nb      13.54629405      52.72882505       2.34821781  T       0.00000000       0.00000000       0.00000000
Nb      15.21476223      52.73035213      -0.00000000  T       0.00000000       0.00000000       0.00000000
Nb      13.38341591      55.07077545       0.00000000  T       0.00000000       0.00000000       0.00000000
Nb      15.04733043      55.07190167       2.34821781  T       0.00000000       0.00000000       0.00000000
Nb      16.51573107      57.42079936       2.34821781  T       0.00000000       0.00000000       0.00000000
Nb      18.17267204      57.42198969      -0.00000000  T       0.00000000       0.00000000       0.00000000
Nb      16.34129513      59.77529925       0.00000000  T       0.00000000       0.00000000       0.00000000
Nb      17.99305813      59.77692241       2.34821781  T       0.00000000       0.00000000       0.00000000
Nb      17.86160736      62.13534052      -0.00000000  T       0.00000000       0.00000000       0.00000000
Nb      17.77127470      64.49421625       2.34821781  T       0.00000000       0.00000000       0.00000000
Nb      17.70862434      66.85235601      -0.00000000  T       0.00000000       0.00000000       0.00000000
Nb      18.95031093      36.35874857       2.34821781  T       0.00000000       0.00000000       0.00000000
Nb      18.93086246      38.70051158      -0.00000000  T       0.00000000       0.00000000       0.00000000
Nb      17.23848014      41.03847552       0.00000000  T       0.00000000       0.00000000       0.00000000
Nb      18.90614645      41.04154483       2.34821781  T       0.00000000       0.00000000       0.00000000
Nb      17.20533978      43.37874364       2.34821781  T       0.00000000       0.00000000       0.00000000
Nb      18.87386828      43.38171380      -0.00000000  T       0.00000000       0.00000000       0.00000000
Nb      17.16085290      45.71806238       0.00000000  T       0.00000000       0.00000000       0.00000000
Nb      18.83034442      45.72088136       2.34821781  T       0.00000000       0.00000000       0.00000000
Nb      17.09910869      48.05639183       2.34821781  T       0.00000000       0.00000000       0.00000000
Nb      18.76952414      48.05897511      -0.00000000  T       0.00000000       0.00000000       0.00000000
Nb      17.01081318      50.39398922       0.00000000  T       0.00000000       0.00000000       0.00000000
Nb      18.68163098      50.39620709       2.34821781  T       0.00000000       0.00000000       0.00000000
Nb      16.88369445      52.73196445       2.34821781  T       0.00000000       0.00000000       0.00000000
Nb      18.55312778      52.73367099      -0.00000000  T       0.00000000       0.00000000       0.00000000
Nb      16.71149552      55.07307525       0.00000000  T       0.00000000       0.00000000       0.00000000
Nb      18.37593908      55.07430048       2.34821781  T       0.00000000       0.00000000       0.00000000
Nb      19.82933318      57.42323265       2.34821781  T       0.00000000       0.00000000       0.00000000
Nb      21.48568020      57.42453327      -0.00000000  T       0.00000000       0.00000000       0.00000000
Nb      19.64428949      59.77864183       0.00000000  T       0.00000000       0.00000000       0.00000000
Nb      21.29494514      59.78046823       2.34821781  T       0.00000000       0.00000000       0.00000000
Nb      19.51139695      62.13758262       2.34821781  T       0.00000000       0.00000000       0.00000000
Nb      21.16073885      62.13996422      -0.00000000  T       0.00000000       0.00000000       0.00000000
Nb      19.42153169      64.49682779       0.00000000  T       0.00000000       0.00000000       0.00000000
Nb      21.07150214      64.49958908       2.34821781  T       0.00000000       0.00000000       0.00000000
Nb      19.35987098      66.85520231       2.34821781  T       0.00000000       0.00000000       0.00000000
Nb      21.01093859      66.85819946      -0.00000000  T       0.00000000       0.00000000       0.00000000
Nb      19.31599487      69.21248587       0.00000000  T       0.00000000       0.00000000       0.00000000
Nb      20.96813640      69.21563004       2.34821781  T       0.00000000       0.00000000       0.00000000
Nb      19.28357723      71.56875573       2.34821781  T       0.00000000       0.00000000       0.00000000
Nb      20.93665027      71.57199414      -0.00000000  T       0.00000000       0.00000000       0.00000000
Nb      20.91267174      73.92745443       2.34821781  T       0.00000000       0.00000000       0.00000000
Nb      20.89387474      76.28216046      -0.00000000  T       0.00000000       0.00000000       0.00000000
Nb      22.30954013      31.68037523       2.34821781  T       0.00000000       0.00000000       0.00000000
Nb      20.63177486      34.01972577       2.34821781  T       0.00000000       0.00000000       0.00000000
Nb      22.29760663      34.02323313      -0.00000000  T       0.00000000       0.00000000       0.00000000
Nb      20.61665429      36.36207307       0.00000000  T       0.00000000       0.00000000       0.00000000
Nb      22.28303455      36.36555167       2.34821781  T       0.00000000       0.00000000       0.00000000
Nb      20.59784501      38.70379187       2.34821781  T       0.00000000       0.00000000       0.00000000
Nb      22.26487993      38.70722810      -0.00000000  T       0.00000000       0.00000000       0.00000000
Nb      20.57389064      41.04476017       0.00000000  T       0.00000000       0.00000000       0.00000000
Nb      22.24171113      41.04813346       2.34821781  T       0.00000000       0.00000000       0.00000000
Nb      20.54251299      43.38483175       2.34821781  T       0.00000000       0.00000000       0.00000000
Nb      22.21127249      43.38810966      -0.00000000  T       0.00000000       0.00000000       0.00000000
Nb      20.50001494      45.72384918       0.00000000  T       0.00000000       0.00000000       0.00000000
Nb      22.16986423      45.72697840       2.34821781  T       0.00000000       0.00000000       0.00000000
Nb      20.44022092      48.06170541       2.34821781  T       0.00000000       0.00000000       0.00000000
Nb      22.11120342      48.06459586      -0.00000000  T       0.00000000       0.00000000       0.00000000
Nb      20.35287850      50.39856114       0.00000000  T       0.00000000       0.00000000       0.00000000
Nb      22.02457395      50.40106495       2.34821781  T       0.00000000       0.00000000       0.00000000
Nb      20.22310270      52.73548203       2.34821781  T       0.00000000       0.00000000       0.00000000
Nb      21.89366342      52.73740939      -0.00000000  T       0.00000000       0.00000000       0.00000000
Nb      20.04069328      55.07558228       0.00000000  T       0.00000000       0.00000000       0.00000000
Nb      21.70579538      55.07692631       2.34821781  T       0.00000000       0.00000000       0.00000000
Nb      23.14167307      57.42589735       2.34821781  T       0.00000000       0.00000000       0.00000000
Nb      24.79726481      57.42733164      -0.00000000  T       0.00000000       0.00000000       0.00000000
Nb      22.94497699      59.78241395       0.00000000  T       0.00000000       0.00000000       0.00000000
Nb      24.59433262      59.78449331       2.34821781  T       0.00000000       0.00000000       0.00000000
Nb      22.80961474      62.14249933       2.34821781  T       0.00000000       0.00000000       0.00000000
Nb      24.45800651      62.14520377      -0.00000000  T       0.00000000       0.00000000       0.00000000
Nb      22.72118239      64.50251348       0.00000000  T       0.00000000       0.00000000       0.00000000
Nb      24.37056955      64.50561602       2.34821781  T       0.00000000       0.00000000       0.00000000
Nb      22.66182803      66.86136015       2.34821781  T       0.00000000       0.00000000       0.00000000
Nb      24.31254069      66.86469867      -0.00000000  T       0.00000000       0.00000000       0.00000000
Nb      22.62016523      69.21893575       0.00000000  T       0.00000000       0.00000000       0.00000000
Nb      24.27208355      69.22241678       2.34821781  T       0.00000000       0.00000000       0.00000000
Nb      22.58964932      71.57539168       2.34821781  T       0.00000000       0.00000000       0.00000000
Nb      24.24257647      71.57896183      -0.00000000  T       0.00000000       0.00000000       0.00000000
Nb      22.56647625      73.93091185       0.00000000  T       0.00000000       0.00000000       0.00000000
Nb      24.22023233      73.93453939       2.34821781  T       0.00000000       0.00000000       0.00000000
Nb      22.54834689      76.28565767       2.34821781  T       0.00000000       0.00000000       0.00000000
Nb      24.20278555      76.28932278      -0.00000000  T       0.00000000       0.00000000       0.00000000
Nb      22.53381081      78.63975995       0.00000000  T       0.00000000       0.00000000       0.00000000
Nb      24.18881659      78.64344965       2.34821781  T       0.00000000       0.00000000       0.00000000
Nb      24.17739792      80.99702786      -0.00000000  T       0.00000000       0.00000000       0.00000000
Nb      25.65716789      27.00094036       2.34821781  T       0.00000000       0.00000000       0.00000000
Nb      23.98446502      29.34076087       2.34821781  T       0.00000000       0.00000000       0.00000000
Nb      25.64946306      29.34463802      -0.00000000  T       0.00000000       0.00000000       0.00000000
Nb      23.97492662      31.68406545       0.00000000  T       0.00000000       0.00000000       0.00000000
Nb      25.64033022      31.68793354       2.34821781  T       0.00000000       0.00000000       0.00000000
Nb      23.96346374      34.02690574       2.34821781  T       0.00000000       0.00000000       0.00000000
Nb      25.62934491      34.03075816      -0.00000000  T       0.00000000       0.00000000       0.00000000
Nb      23.94945036      36.36919739       0.00000000  T       0.00000000       0.00000000       0.00000000
Nb      25.61590025      36.37302497       2.34821781  T       0.00000000       0.00000000       0.00000000
Nb      23.93196565      38.71083346       2.34821781  T       0.00000000       0.00000000       0.00000000
Nb      25.59910046      38.71462293      -0.00000000  T       0.00000000       0.00000000       0.00000000
Nb      23.90960616      41.05167809       0.00000000  T       0.00000000       0.00000000       0.00000000
Nb      25.57757377      41.05540927       2.34821781  T       0.00000000       0.00000000       0.00000000
Nb      23.88014506      43.39156123       2.34821781  T       0.00000000       0.00000000       0.00000000
Nb      25.54912868      43.39520197      -0.00000000  T       0.00000000       0.00000000       0.00000000
Nb      23.83989160      45.73028315       0.00000000  T       0.00000000       0.00000000       0.00000000
Nb      25.50056028      45.72310318       2.34821781  F      -0.00013074      -0.00067868      -0.00000000
Nb      23.78247541      48.06766124       2.34821781  T       0.00000000       0.00000000       0.00000000
Nb      25.43627141      48.06036891      -0.00000000  F      -0.00002252      -0.00100163       0.00000000
Nb      23.69673550      50.40373387       0.00000000  T       0.00000000       0.00000000       0.00000000
Nb      25.33992593      50.40208284       2.34821781  F       0.00008560      -0.00008344      -0.00000000
Nb      23.56485819      52.73946677       2.34821781  T       0.00000000       0.00000000       0.00000000
Nb      25.19548369      52.75312606      -0.00000000  F       0.00035358       0.00060557       0.00000000
Nb      23.34573089      55.08634925       0.00000000  F       0.00003786      -0.00001002      -0.00000000
Nb      25.00640906      55.10033799       2.34821781  F      -0.00045435       0.00033434       0.00000000
Nb      26.45455196      57.45650470       2.34821781  F       0.00003277       0.00089322       0.00000000
Nb      28.11192097      57.46684109       0.00000000  F       0.00000683       0.00030117      -0.00000000
Nb      26.24295500      59.78672298       0.00000000  T       0.00000000       0.00000000       0.00000000
Nb      27.91786104      59.81146294       2.34821781  F       0.00069216       0.00075757       0.00000000
Nb      26.10589655      62.14809554       2.34821781  T       0.00000000       0.00000000       0.00000000
Nb      27.76646639      62.15256795      -0.00000000  F       0.00000622       0.00058003       0.00000000
Nb      26.01966163      64.50891370       0.00000000  T       0.00000000       0.00000000       0.00000000
Nb      27.67003185      64.50816983       2.34821781  F       0.00003240       0.00069404       0.00000000
Nb      25.96307853      66.86823115       2.34821781  T       0.00000000       0.00000000       0.00000000
Nb      27.60869495      66.86865568      -0.00000000  F      -0.00023855       0.00007026       0.00000000
Nb      25.92389389      69.22608876       0.00000000  T       0.00000000       0.00000000       0.00000000
Nb      27.57559912      69.22996948       2.34821781  T       0.00000000       0.00000000       0.00000000
Nb      25.89543402      71.58271987       2.34821781  T       0.00000000       0.00000000       0.00000000
Nb      27.54822446      71.58668321      -0.00000000  T       0.00000000       0.00000000       0.00000000
Nb      25.87394194      73.93835206       0.00000000  T       0.00000000       0.00000000       0.00000000
Nb      27.52760716      73.94236700       2.34821781  T       0.00000000       0.00000000       0.00000000
Nb      25.85719237      76.29317058       2.34821781  T       0.00000000       0.00000000       0.00000000
Nb      27.51156911      76.29721793      -0.00000000  T       0.00000000       0.00000000       0.00000000
Nb      25.84380021      78.64731981       0.00000000  T       0.00000000       0.00000000       0.00000000
Nb      27.49876319      78.65138705       2.34821781  T       0.00000000       0.00000000       0.00000000
Nb      25.83286456      81.00091163       2.34821781  T       0.00000000       0.00000000       0.00000000
Nb      27.48831707      81.00499014      -0.00000000  T       0.00000000       0.00000000       0.00000000
Nb      25.82377680      83.35403334       0.00000000  T       0.00000000       0.00000000       0.00000000
Nb      27.47964329      83.35811693       2.34821781  T       0.00000000       0.00000000       0.00000000
Nb      27.47233278      85.71083788      -0.00000000  T       0.00000000       0.00000000       0.00000000
Nb      27.32810277      24.66096497       2.34821781  T       0.00000000       0.00000000       0.00000000
Nb      28.99245904      24.66523983      -0.00000000  T       0.00000000       0.00000000       0.00000000
Nb      27.32182521      27.00501157       0.00000000  T       0.00000000       0.00000000       0.00000000
Nb      28.98648864      27.00929075       2.34821781  T       0.00000000       0.00000000       0.00000000
Nb      27.31447207      29.34870723       2.34821781  T       0.00000000       0.00000000       0.00000000
Nb      28.97949077      29.35298686      -0.00000000  T       0.00000000       0.00000000       0.00000000
Nb      27.30574968      31.69199581       0.00000000  T       0.00000000       0.00000000       0.00000000
Nb      28.97118363      31.69627098       2.34821781  T       0.00000000       0.00000000       0.00000000
Nb      27.29524875      34.03480696       2.34821781  T       0.00000000       0.00000000       0.00000000
Nb      28.96117374      34.03907116      -0.00000000  T       0.00000000       0.00000000       0.00000000
Nb      27.28238263      36.37705124       0.00000000  T       0.00000000       0.00000000       0.00000000
Nb      28.94889578      36.38129551       2.34821781  T       0.00000000       0.00000000       0.00000000
Nb      27.26628252      38.71861356       2.34821781  T       0.00000000       0.00000000       0.00000000
Nb      28.93296132      38.71799467      -0.00000000  F      -0.00019082      -0.00076733      -0.00000000
Nb      27.24561181      41.05934436       0.00000000  T       0.00000000       0.00000000       0.00000000
Nb      28.91709179      41.05402100       2.34821781  F       0.00039344      -0.00087977       0.00000000
Nb      27.21682246      43.38845960       2.34821781  F       0.00012093      -0.00084019       0.00000000
Nb      28.88893270      43.38917178       0.00000000  F      -0.00017589      -0.00060051      -0.00000000
Nb      27.17067933      45.72417778      -0.00000000  F       0.00031695      -0.00083768       0.00000000
Nb      28.83810352      45.72466786       2.34821781  F      -0.00001455      -0.00078208       0.00000000
Nb      27.09840789      48.06141659       2.34821781  F      -0.00031459      -0.00073702      -0.00000000
Nb      28.75818844      48.06464963       0.00000000  F      -0.00013925      -0.00029937      -0.00000000
Nb      26.99315096      50.40756126       0.00000000  F      -0.00038218      -0.00038202       0.00000000
Nb      28.64432428      50.41208523       2.34821781  F       0.00020214      -0.00006614       0.00000000
Nb      26.84536741      52.76002511       2.34821781  F       0.00003193       0.00045555      -0.00000000
Nb      28.49404430      52.76484842       0.00000000  F       0.00016957      -0.00062135      -0.00000000
Nb      26.66240135      55.10829293      -0.00000000  F      -0.00022243       0.00066136       0.00000000
Nb      28.31227010      55.11810105       2.34821781  F      -0.00022994      -0.00042027      -0.00000000
Nb      29.76826419      57.47271624       2.34821781  F       0.00013181      -0.00000077       0.00000000
Nb      31.42474093      57.47328449       0.00000000  F      -0.00009177       0.00011149      -0.00000000
Nb      29.58147534      59.81804580       0.00000000  F       0.00031050      -0.00004140      -0.00000000
Nb      31.24299424      59.82095363       2.34821781  F      -0.00006478      -0.00047470       0.00000000
Nb      29.42854593      62.16128843       2.34821781  F       0.00036270       0.00032548      -0.00000000
Nb      31.09086341      62.16660931       0.00000000  F       0.00028731      -0.00045083      -0.00000000
Nb      29.32516163      64.51205645       0.00000000  F       0.00047241       0.00039601      -0.00000000
Nb      30.98185015      64.51634239       2.34821781  F       0.00088128      -0.00053538       0.00000000
Nb      29.26057065      66.86943458       2.34821781  F      -0.00017098       0.00053155      -0.00000000
Nb      30.91307173      66.87197015       0.00000000  F       0.00065746      -0.00010438      -0.00000000
Nb      29.22056625      69.22971186      -0.00000000  F       0.00012090       0.00039325       0.00000000
Nb      30.87190788      69.23088468       2.34821781  F      -0.00024201       0.00007407       0.00000000
Nb      29.20095056      71.59087186       2.34821781  T       0.00000000       0.00000000       0.00000000
Nb      30.84677302      71.59111909       0.00000000  F      -0.00002214       0.00003021      -0.00000000
Nb      29.18123028      73.94660385       0.00000000  T       0.00000000       0.00000000       0.00000000
Nb      30.82831218      73.95104782       2.34821781  F      -0.00007099       0.00029372       0.00000000
Nb      29.16591769      76.30148419       2.34821781  T       0.00000000       0.00000000       0.00000000
Nb      30.82024020      76.30599168      -0.00000000  T       0.00000000       0.00000000       0.00000000
Nb      29.15370720      78.65567040       0.00000000  T       0.00000000       0.00000000       0.00000000
Nb      30.80863407      78.66019183       2.34821781  T       0.00000000       0.00000000       0.00000000
Nb      29.14375693      81.00928212       2.34821781  T       0.00000000       0.00000000       0.00000000
Nb      30.79918581      81.01380913      -0.00000000  T       0.00000000       0.00000000       0.00000000
Nb      29.13550165      83.36241140       0.00000000  T       0.00000000       0.00000000       0.00000000
Nb      30.79135344      83.36693790       2.34821781  T       0.00000000       0.00000000       0.00000000
Nb      29.12854866      85.71513022       2.34821781  T       0.00000000       0.00000000       0.00000000
Nb      30.78476125      85.71965156      -0.00000000  T       0.00000000       0.00000000       0.00000000
Nb      29.12261709      88.06749566       0.00000000  T       0.00000000       0.00000000       0.00000000
Nb      30.77914093      88.07200818       2.34821781  T       0.00000000       0.00000000       0.00000000
Nb      30.66169695      22.32537026       0.00000000  T       0.00000000       0.00000000       0.00000000
Nb      32.32578330      22.33010574       2.34821781  T       0.00000000       0.00000000       0.00000000
Nb      30.65681733      24.66974040       2.34821781  T       0.00000000       0.00000000       0.00000000
Nb      32.32117605      24.67449002      -0.00000000  T       0.00000000       0.00000000       0.00000000
Nb      30.65115680      27.01379860       0.00000000  T       0.00000000       0.00000000       0.00000000
Nb      32.31582809      27.01855904       2.34821781  T       0.00000000       0.00000000       0.00000000
Nb      30.64451772      29.35749807       2.34821781  T       0.00000000       0.00000000       0.00000000
Nb      32.30955128      29.36226532      -0.00000000  T       0.00000000       0.00000000       0.00000000
Nb      30.63663054      31.70078060       0.00000000  T       0.00000000       0.00000000       0.00000000
Nb      32.30208869      31.70554964       2.34821781  T       0.00000000       0.00000000       0.00000000
Nb      30.62711822      34.04357268       2.34821781  T       0.00000000       0.00000000       0.00000000
Nb      32.29141161      34.04415154       0.00000000  F      -0.00037820      -0.00038033      -0.00000000
Nb      30.61496055      36.38111159       0.00000000  F      -0.00032590      -0.00067538      -0.00000000
Nb      32.28509688      36.38437627       2.34821781  F      -0.00020398      -0.00031746       0.00000000
Nb      30.60508089      38.71953528       2.34821781  F       0.00008499      -0.00062271       0.00000000
Nb      32.27675769      38.72133098       0.00000000  F      -0.00000607      -0.00014125       0.00000000
Nb      30.58962421      41.05468924       0.00000000  F      -0.00035358      -0.00071525      -0.00000000
Nb      32.26160784      41.05752080       2.34821781  F      -0.00019324      -0.00000200       0.00000000
Nb      30.55973519      43.39034781       2.34821781  F       0.00011148      -0.00057883       0.00000000
Nb      32.23050513      43.39366943       0.00000000  F       0.00014729       0.00017555      -0.00000000
Nb      30.50524574      45.72739265       0.00000000  F      -0.00003889      -0.00019677      -0.00000000
Nb      32.17268140      45.73148737       2.34821781  F       0.00030446      -0.00042529       0.00000000
Nb      30.41911802      48.06871688       2.34821781  F       0.00019664      -0.00064559       0.00000000
Nb      32.08103002      48.07256338       0.00000000  F       0.00027644      -0.00041173      -0.00000000
Nb      30.29813337      50.41599914       0.00000000  F       0.00058824      -0.00024418      -0.00000000
Nb      31.95413953      50.41841713       2.34821781  F       0.00061553       0.00048796       0.00000000
Nb      30.14434077      52.76811208       2.34821781  F       0.00014368      -0.00012140       0.00000000
Nb      31.79637337      52.76908816      -0.00000000  F       0.00027559       0.00026126       0.00000000
Nb      29.96344814      55.12173281      -0.00000000  F      -0.00037171      -0.00027692       0.00000000
Nb      31.61557696      55.12183869       2.34821781  F      -0.00008619       0.00002708      -0.00000000
Nb      33.08041658      57.47072863       2.34821781  F       0.00012175      -0.00045461       0.00000000
Nb      34.73535639      57.46607740       0.00000000  F       0.00039307      -0.00032634       0.00000000
Nb      32.90161295      59.82030452       0.00000000  F       0.00002694      -0.00127913      -0.00000000
Nb      34.55841794      59.81708310       2.34821781  F      -0.00048756      -0.00079272       0.00000000
Nb      32.75046555      62.16859529       2.34821781  F       0.00006132      -0.00049205      -0.00000000
Nb      34.40763648      62.16791301       0.00000000  F      -0.00002778      -0.00015589      -0.00000000
Nb      32.63861667      64.51920394       0.00000000  F      -0.00014385      -0.00027201      -0.00000000
Nb      34.29405482      64.52051128       2.34821781  F       0.00003686      -0.00016978       0.00000000
Nb      32.56601373      66.87451866       2.34821781  F       0.00000988      -0.00026481       0.00000000
Nb      34.21881732      66.87629442       0.00000000  F      -0.00040279       0.00019852      -0.00000000
Nb      32.52274668      69.23311264       0.00000000  F       0.00105032      -0.00027618      -0.00000000
Nb      34.17370090      69.23505183       2.34821781  F       0.00001271       0.00005665       0.00000000
Nb      32.49732167      71.59345157       2.34821781  F      -0.00023405      -0.00041472      -0.00000000
Nb      34.14773164      71.59516966      -0.00000000  F       0.00034485      -0.00047980       0.00000000
Nb      32.48089488      73.95241344       0.00000000  F      -0.00016237       0.00028612      -0.00000000
Nb      34.13231148      73.95494638       2.34821781  F       0.00025922      -0.00055724      -0.00000000
Nb      32.46846086      76.31081493       2.34821781  F      -0.00074038      -0.00016374       0.00000000
Nb      34.12174587      76.31284727      -0.00000000  F      -0.00071405      -0.00008446       0.00000000
Nb      32.46354583      78.66497683       0.00000000  T       0.00000000       0.00000000       0.00000000
Nb      34.11353366      78.67096619       2.34821781  F      -0.00090702       0.00006500       0.00000000
Nb      32.45460556      81.01859615       2.34821781  T       0.00000000       0.00000000       0.00000000
Nb      34.11001831      81.02367235      -0.00000000  T       0.00000000       0.00000000       0.00000000
Nb      32.44720042      83.37172087       0.00000000  T       0.00000000       0.00000000       0.00000000
Nb      34.10304461      83.37678878       2.34821781  T       0.00000000       0.00000000       0.00000000
Nb      32.44097225      85.72442579       2.34821781  T       0.00000000       0.00000000       0.00000000
Nb      34.09718365      85.72948065      -0.00000000  T       0.00000000       0.00000000       0.00000000
Nb      32.43566568      88.07676993       0.00000000  T       0.00000000       0.00000000       0.00000000
Nb      34.09219330      88.08180788       2.34821781  T       0.00000000       0.00000000       0.00000000
Nb      32.43109386      90.42880057       2.34821781  T       0.00000000       0.00000000       0.00000000
Nb      34.08789663      90.43381837      -0.00000000  T       0.00000000       0.00000000       0.00000000
Nb      33.99363214      19.99043036       2.34821781  T       0.00000000       0.00000000       0.00000000
Nb      35.65746594      19.99571222      -0.00000000  T       0.00000000       0.00000000       0.00000000
Nb      33.98986604      22.33511283       0.00000000  T       0.00000000       0.00000000       0.00000000
Nb      35.65394288      22.34042195       2.34821781  T       0.00000000       0.00000000       0.00000000
Nb      33.98553333      24.67951570       2.34821781  T       0.00000000       0.00000000       0.00000000
Nb      35.64988691      24.68484892      -0.00000000  T       0.00000000       0.00000000       0.00000000
Nb      33.98050063      27.02359985       0.00000000  T       0.00000000       0.00000000       0.00000000
Nb      35.64517220      27.02895351       2.34821781  T       0.00000000       0.00000000       0.00000000
Nb      33.97458955      29.36731711       2.34821781  T       0.00000000       0.00000000       0.00000000
Nb      35.63963029      29.37268687      -0.00000000  T       0.00000000       0.00000000       0.00000000
Nb      33.96755612      31.71060728       0.00000000  T       0.00000000       0.00000000       0.00000000
Nb      35.63277643      31.71101212       2.34821781  F      -0.00000273      -0.00025452       0.00000000
Nb      33.96003637      34.04819453       2.34821781  F       0.00010494      -0.00018097       0.00000000
Nb      35.62877645      34.05228966       0.00000000  F       0.00026738       0.00030437      -0.00000000
Nb      33.95480983      36.38733446       0.00000000  F      -0.00009930      -0.00005374      -0.00000000
Nb      35.62424071      36.39100987       2.34821781  F      -0.00017807       0.00027840       0.00000000
Nb      33.94785720      38.72492972       2.34821781  F      -0.00033802       0.00030962       0.00000000
Nb      35.61841617      38.72956273       0.00000000  F      -0.00015517       0.00026757      -0.00000000
Nb      33.93338874      41.06183517       0.00000000  F      -0.00038546       0.00034262      -0.00000000
Nb      35.60475970      41.06710562       2.34821781  F      -0.00034557       0.00018456       0.00000000
Nb      33.90139686      43.39846460       2.34821781  F       0.00014518       0.00024289       0.00000000
Nb      35.57269052      43.40387385       0.00000000  F       0.00038109      -0.00003344      -0.00000000