503
Lattice="93.78776767593584 0.0 0.0 0.0 81.22258937159344 0.0 0.0 0.0 2.7632486048334464" Properties=species:S:1:pos:R:3:fix_mask:L:1:forces:R:3 energy=-6364.359141153598 pbc="T T T"
W       20.83325795      28.57859068      -0.27798384  T       0.00000000       0.00000000       0.00000000
W       19.53176978      30.83456578       0.60542552  T       0.00000000       0.00000000       0.00000000
W       18.23063467      33.09067200      -1.27321377  T       0.00000000       0.00000000       0.00000000
W       20.83541749      33.09068409      -0.34225056  T       0.00000000       0.00000000       0.00000000
W       19.53460754      35.34684466       0.54066053  T       0.00000000       0.00000000       0.00000000
W       18.23394509      37.60303944      -1.33748672  T       0.00000000       0.00000000       0.00000000
W       20.83892523      37.60303766      -0.41221621  T       0.00000000       0.00000000       0.00000000
W       16.93327787      39.85923292      -0.44993337  T       0.00000000       0.00000000       0.00000000
W       19.53843676      39.85923278       0.47211721  T       0.00000000       0.00000000       0.00000000
W       18.23780988      42.11541354       1.35949572  T       0.00000000       0.00000000       0.00000000
W       20.84314872      42.11541294       2.27846596  T       0.00000000       0.00000000       0.00000000
W       19.54243143      44.37158293       3.16622871  T       0.00000000       0.00000000       0.00000000
W       18.24138879      46.62775992       1.29421945  T       0.00000000       0.00000000       0.00000000
W       20.84700059      46.62776193       2.20719549  T       0.00000000       0.00000000       0.00000000
W       19.54566363      48.88397471       3.09985934  T       0.00000000       0.00000000       0.00000000
W       20.84963631      51.14028783       2.14071563  T       0.00000000       0.00000000       0.00000000
W       26.04353629      19.55708462      -1.04708377  T       0.00000000       0.00000000       0.00000000
W       28.64933224      19.55815619      -0.09846080  T       0.00000000       0.00000000       0.00000000
W       24.74038449      21.81206107      -0.16307226  T       0.00000000       0.00000000       0.00000000
W       27.34594673      21.81286702       0.78359656  T       0.00000000       0.00000000       0.00000000
W       26.04286789      24.06783900      -1.09912254  T       0.00000000       0.00000000       0.00000000
W       28.64835588      24.06860663      -0.15118659  T       0.00000000       0.00000000       0.00000000
W       23.43757103      24.06729848       0.71995966  T       0.00000000       0.00000000       0.00000000
W       22.13518310      26.32281621      -1.16070094  T       0.00000000       0.00000000       0.00000000
W       24.74022991      26.32313068      -0.21950186  T       0.00000000       0.00000000       0.00000000
W       27.34540591      26.32359986       0.72524503  T       0.00000000       0.00000000       0.00000000
W       26.04303109      28.57898031      -1.16230070  T       0.00000000       0.00000000       0.00000000
W       28.64805023      28.57935783      -0.21727928  T       0.00000000       0.00000000       0.00000000
W       23.43811861      28.57874267       0.65991555  T       0.00000000       0.00000000       0.00000000
W       22.13654066      30.83462177      -1.22339228  T       0.00000000       0.00000000       0.00000000
W       24.74129695      30.83471417      -0.28639114  T       0.00000000       0.00000000       0.00000000
W       27.34606395      30.83486976       0.65394596  T       0.00000000       0.00000000       0.00000000
W       26.04482881      33.09074837      -1.23719162  T       0.00000000       0.00000000       0.00000000
W       28.65717816      33.09403311      -0.29974966  F       0.00000024       0.00000027       0.00000001
W       23.44014908      33.09070660       0.59063909  T       0.00000000       0.00000000       0.00000000
W       22.13942864      35.34684486      -1.29366728  T       0.00000000       0.00000000       0.00000000
W       24.74418250      35.34684771      -0.36307102  T       0.00000000       0.00000000       0.00000000
W       27.34885477      35.34685641       0.56979090  T       0.00000000       0.00000000       0.00000000
W       26.04873154      37.60303302      -1.32199104  T       0.00000000       0.00000000       0.00000000
W       28.65812968      37.60306815      -0.39359335  F      -0.00000029      -0.00000008      -0.00000006
W       23.44385893      37.60303552       0.51392998  T       0.00000000       0.00000000       0.00000000
W       22.14358425      39.85923260      -1.36888611  T       0.00000000       0.00000000       0.00000000
W       24.74871651      39.85923234      -0.44638062  T       0.00000000       0.00000000       0.00000000
W       27.36148212      39.85903789       0.47742212  F       0.00000033      -0.00000011       0.00000001
W       26.05391224      42.11541108       1.35165928  T       0.00000000       0.00000000       0.00000000
W       28.66528890      42.11409003       2.26955079  F      -0.00000014      -0.00000035      -0.00000019
W       23.44851321      42.11541214       3.19698957  T       0.00000000       0.00000000       0.00000000
W       22.14795773      44.37158078       1.31835611  T       0.00000000       0.00000000       0.00000000
W       24.75354514      44.37157863       2.23248319  T       0.00000000       0.00000000       0.00000000
W       27.36549205      44.36916603       3.14614211  F       0.00000003       0.00000025      -0.00000000
W       26.05841554      46.62778109       1.26447693  T       0.00000000       0.00000000       0.00000000
W       28.67252081      46.62469073       2.17192739  F      -0.00000039       0.00000012      -0.00000021
W       23.45267278      46.62776770       3.11854219  T       0.00000000       0.00000000       0.00000000
W       22.15134174      48.88400159       1.24599698  T       0.00000000       0.00000000       0.00000000
W       24.75706152      48.88404892       2.15303522  T       0.00000000       0.00000000       0.00000000
W       27.36281251      48.88413361       3.05697798  T       0.00000000       0.00000000       0.00000000
W       26.06090903      51.14053885       1.18584065  T       0.00000000       0.00000000       0.00000000
W       28.66647965      51.14079732       2.08459787  T       0.00000000       0.00000000       0.00000000
W       23.45527997      51.14038334       3.04641270  T       0.00000000       0.00000000       0.00000000
W       22.15318996      53.39677321       1.18053700  T       0.00000000       0.00000000       0.00000000
W       24.75868750      53.39700288       2.08262855  T       0.00000000       0.00000000       0.00000000
W       27.36408886      53.39735815       2.98115625  T       0.00000000       0.00000000       0.00000000
W       26.06152233      55.65393926       1.11867094  T       0.00000000       0.00000000       0.00000000
W       28.66660798      55.65458220       2.01352180  T       0.00000000       0.00000000       0.00000000
W       23.45626138      55.65350199       2.98315845  T       0.00000000       0.00000000       0.00000000
W       24.75885725      57.91051938       2.02270767  T       0.00000000       0.00000000       0.00000000
W       27.36383873      57.91122213       2.91858269  T       0.00000000       0.00000000       0.00000000
W       26.06104914      60.16782679       1.06304147  T       0.00000000       0.00000000       0.00000000
W       28.66576402      60.16881536       1.95659548  T       0.00000000       0.00000000       0.00000000
W       27.36295006      62.42537795       2.86794832  T       0.00000000       0.00000000       0.00000000
W       33.86264463      15.05075270      -0.91520064  T       0.00000000       0.00000000       0.00000000
W       36.46887967      15.05253509       0.04148285  T       0.00000000       0.00000000       0.00000000
W       31.25647261      15.04910346       0.89430518  T       0.00000000       0.00000000       0.00000000
W       29.95288121      17.30360645      -0.98253110  T       0.00000000       0.00000000       0.00000000
W       32.55901005      17.30516628      -0.02922229  T       0.00000000       0.00000000       0.00000000
W       35.16526985      17.30696659       0.92757804  T       0.00000000       0.00000000       0.00000000
W       33.86153392      19.56120597      -0.95323944  T       0.00000000       0.00000000       0.00000000
W       36.46789893      19.56318746       0.00724980  T       0.00000000       0.00000000       0.00000000
W       31.25533261      19.55952100       0.85377831  T       0.00000000       0.00000000       0.00000000
W       29.95172662      21.81395244      -1.02919783  T       0.00000000       0.00000000       0.00000000
W       32.55775627      21.81538621      -0.07438235  T       0.00000000       0.00000000       0.00000000
W       35.16404000      21.81721531       0.88533941  T       0.00000000       0.00000000       0.00000000
W       33.86014541      24.07118829      -1.00418601  T       0.00000000       0.00000000       0.00000000
W       36.46980674      24.07978394      -0.04455497  F      -0.00000003       0.00000062      -0.00000004
W       31.25409676      24.06968951       0.80126610  T       0.00000000       0.00000000       0.00000000
W       29.95078175      26.32430384      -1.08885944  T       0.00000000       0.00000000       0.00000000
W       32.55644642      26.32535769      -0.13427295  T       0.00000000       0.00000000       0.00000000
W       35.16426847      26.33091938       0.82216113  F       0.00000036      -0.00000041       0.00000001
W       33.86200635      28.58319552      -1.07893679  F       0.00000012       0.00000058       0.00000002
W       36.46559680      28.58451516      -0.11767899  F       0.00000041       0.00000014      -0.00000003
W       31.25963886      28.58520781       0.73079921  F      -0.00000008      -0.00000016      -0.00000012
W       29.95819897      30.83958330      -1.16664223  F      -0.00000011       0.00000001       0.00000019
W       32.56145752      30.83942034      -0.21895049  F       0.00000043      -0.00000025      -0.00000000
W       35.16289101      30.83804243       0.73575581  F      -0.00000009       0.00000020       0.00000011
W       33.86148812      33.09347990      -1.17581841  F       0.00000032       0.00000026      -0.00000024
W       36.46335847      33.09249103      -0.22121520  F      -0.00000049       0.00000037      -0.00000018
W       31.25997806      33.09462645       0.64098730  F      -0.00000037       0.00000051      -0.00000007
W       29.95702621      35.34921987      -1.25965148  F       0.00000033      -0.00000014      -0.00000025
W       32.56012736      35.34877351      -0.32250317  F      -0.00000029       0.00000014      -0.00000035
W       35.16222823      35.34796161       0.62088196  F       0.00000008      -0.00000008      -0.00000036
W       33.86291980      37.60361284      -1.29589666  F      -0.00000023      -0.00000002      -0.00000008
W       36.46464596      37.60329904      -0.35896507  F       0.00000040       0.00000007      -0.00000015
W       31.26080006      37.60377370       0.53525609  F       0.00000054      -0.00000029      -0.00000014
W       29.96369162      39.85887297      -1.36417676  F       0.00000001       0.00000026      -0.00000016
W       32.56555029      39.85924904      -0.44170029  F      -0.00000014      -0.00000027      -0.00000020
W       35.16746558      39.85949874       0.48174077  F      -0.00000026       0.00000022      -0.00000014
W       33.87086184      42.11522536       1.33498587  F      -0.00000002      -0.00000063       0.00000013
W       36.47356886      42.11606830       2.24602374  F      -0.00000005      -0.00000001       0.00000016
W       31.26822444      42.11439949       3.18456920  F      -0.00000039      -0.00000033      -0.00000016
W       29.97071782      44.36909362       1.29321702  F      -0.00000004       0.00000014      -0.00000016
W       32.57359231      44.37016352       2.20037043  F      -0.00000013       0.00000044       0.00000005
W       35.17648814      44.37153884       3.10336106  F       0.00000004       0.00000033       0.00000005
W       33.87838477      46.62648139       1.21127769  F       0.00000008      -0.00000030      -0.00000023
W       36.48092341      46.62838868       2.10328137  F      -0.00000024      -0.00000054       0.00000002
W       31.27613980      46.62493956       3.07567030  F       0.00000031      -0.00000032      -0.00000033
W       29.97564523      48.88075676       1.19540192  F      -0.00000067       0.00000048      -0.00000004
W       32.57972680      48.88120390       2.09235321  F       0.00000065      -0.00000003      -0.00000019
W       35.18186308      48.88337151       2.98294920  F      -0.00000032       0.00000004      -0.00000013
W       33.88252809      51.13792579       1.10811225  F       0.00000038      -0.00000010      -0.00000032
W       36.48421975      51.14095986       1.99137864  F       0.00000018       0.00000016       0.00000010
W       31.27849523      51.13676619       2.98084289  F      -0.00000023       0.00000035      -0.00000011
W       29.96932219      53.39791420       1.11192418  T       0.00000000       0.00000000       0.00000000
W       32.58117438      53.39306319       2.00308925  F      -0.00000044       0.00000016      -0.00000001
W       35.18390707      53.39601496       2.88785744  F       0.00000035      -0.00000014       0.00000001
W       33.88126994      55.65249361       1.02630477  F      -0.00000017       0.00000042       0.00000012
W       36.48424305      55.65396659       1.90702056  F      -0.00000011       0.00000053      -0.00000001
W       31.27144293      55.65552653       2.90358354  T       0.00000000       0.00000000       0.00000000
W       29.96859689      57.91220046       1.04718316  T       0.00000000       0.00000000       0.00000000
W       32.57308105      57.91354206       1.93429322  T       0.00000000       0.00000000       0.00000000
W       35.17726402      57.91532596       2.81594065  T       0.00000000       0.00000000       0.00000000
W       33.87450293      60.17177105       0.96820403  T       0.00000000       0.00000000       0.00000000
W       36.47854246      60.17378985       1.84861672  T       0.00000000       0.00000000       0.00000000
W       31.27025233      60.17011369       2.84623051  T       0.00000000       0.00000000       0.00000000
W       29.96745495      62.42662593       0.99655483  T       0.00000000       0.00000000       0.00000000
W       32.57176901      62.42816927       1.88477738  T       0.00000000       0.00000000       0.00000000
W       35.17591682      62.43000246       2.76909696  T       0.00000000       0.00000000       0.00000000
W       33.87329414      64.68621022       0.92643067  T       0.00000000       0.00000000       0.00000000
W       36.47744354      64.68806784       1.81066642  T       0.00000000       0.00000000       0.00000000
W       31.26905583      64.68453195       2.80213597  T       0.00000000       0.00000000       0.00000000
W       32.57067376      66.94241421       1.84709135  T       0.00000000       0.00000000       0.00000000
W       35.17491448      66.94411224       2.73456938  T       0.00000000       0.00000000       0.00000000
W       37.77233663      12.79783975      -0.84816448  T       0.00000000       0.00000000       0.00000000
W       40.37846636      12.79938862       0.11007150  T       0.00000000       0.00000000       0.00000000
W       42.98453370      12.80066611       1.07012194  T       0.00000000       0.00000000       0.00000000
W       41.68131738      15.05595548      -0.80025494  T       0.00000000       0.00000000       0.00000000
W       44.28743554      15.05720667       0.16374515  T       0.00000000       0.00000000       0.00000000
W       39.07512173      15.05432858       1.00098452  T       0.00000000       0.00000000       0.00000000
W       37.77160381      17.30892239      -0.87534050  T       0.00000000       0.00000000       0.00000000
W       40.37793863      17.31086766       0.08834057  T       0.00000000       0.00000000       0.00000000
W       42.98420816      17.31256008       1.05491862  T       0.00000000       0.00000000       0.00000000
W       41.68079614      19.56746680      -0.82235005  T       0.00000000       0.00000000       0.00000000
W       44.28714904      19.56919292       0.14984973  T       0.00000000       0.00000000       0.00000000
W       39.07435238      19.56535209       0.97205287  T       0.00000000       0.00000000       0.00000000
W       37.77053334      21.81941794      -0.91288163  T       0.00000000       0.00000000       0.00000000
W       40.37805988      21.82826558       0.05361838  F       0.00000028      -0.00000005       0.00000003
W       42.98511943      21.83266156       1.02823435  F       0.00000021      -0.00000017      -0.00000007
W       41.68023140      24.08414885      -0.86393711  F      -0.00000027      -0.00000006      -0.00000044
W       44.28693290      24.08709080       0.11826594  F       0.00000012      -0.00000033      -0.00000022
W       39.07450407      24.08112983       0.92397810  F       0.00000016       0.00000020      -0.00000019
W       37.77010375      26.33315019      -0.97551247  F      -0.00000013       0.00000002      -0.00000029
W       40.37546361      26.33464980      -0.00070437  F      -0.00000039      -0.00000055      -0.00000030
W       42.98206130      26.33734782       0.98347465  F      -0.00000040       0.00000011       0.00000001
W       41.67647042      28.58750891      -0.92655906  F      -0.00000015       0.00000008      -0.00000008
W       44.28399889      28.59042027       0.07007218  F      -0.00000037      -0.00000009      -0.00000006
W       39.07046937      28.58593090       0.85333190  F      -0.00000083       0.00000018      -0.00000004
W       37.76598331      30.83827101      -1.06330941  F      -0.00000029      -0.00000012      -0.00000023
W       40.37071765      30.83888274      -0.08579843  F      -0.00000029       0.00000023      -0.00000042
W       42.97708922      30.84019456       0.90919464  F      -0.00000028      -0.00000006      -0.00000045
W       41.67065058      33.09176758      -1.03307537  F      -0.00000042       0.00000018      -0.00000005
W       44.27697587      33.09163716      -0.02160211  F      -0.00000007      -0.00000032      -0.00000054
W       39.06637086      33.09212762       0.74543549  F      -0.00000030       0.00000023      -0.00000026
W       37.76418773      35.34718324      -1.19015379  F       0.00000019       0.00000044      -0.00000023
W       40.36651155      35.34622760      -0.22348902  F      -0.00000046       0.00000006       0.00000001
W       42.96912445      35.34371933       0.76796236  F       0.00000025      -0.00000024      -0.00000008
W       41.66546146      37.60118426      -1.21719241  F       0.00000010       0.00000039       0.00000029
W       44.26458139      37.59667090      -0.22571098  F       0.00000035      -0.00000027      -0.00000026
W       39.06574255      37.60263832       0.58603680  F      -0.00000025      -0.00000019      -0.00000013
W       37.76875965      39.85964030      -1.35631756  F      -0.00000012       0.00000009      -0.00000005
W       40.36859632      39.85966801      -0.42777970  F       0.00000064       0.00000018       0.00000022
W       42.96684410      39.85554969       0.51175547  F      -0.00000028       0.00000017       0.00000008
W       41.67435813      42.11722595       1.29143439  F       0.00000028      -0.00000042       0.00000063
W       44.27312521      42.12040904       2.17476826  F      -0.00000008       0.00000022       0.00000049
W       39.07508234      42.11714705       3.15267328  F       0.00000006      -0.00000024       0.00000045
W       37.77903950      44.37322923       1.23641032  F       0.00000008      -0.00000008       0.00000020
W       40.38064728      44.37490213       2.12236373  F      -0.00000016      -0.00000031       0.00000050
W       42.98216631      44.37926923       2.98731166  F       0.00000017      -0.00000022       0.00000052
W       41.68529640      46.63460371       1.08701270  F       0.00000026      -0.00000013       0.00000037
W       44.28737665      46.64263684       1.92030438  F       0.00000002       0.00000019       0.00000012
W       39.08337183      46.63052429       2.98519466  F      -0.00000007      -0.00000070       0.00000038
W       37.78396987      48.88572836       1.10163456  F       0.00000006       0.00000024       0.00000018
W       40.38587405      48.88879758       1.97080726  F      -0.00000009       0.00000020       0.00000013
W       42.98773446      48.89393320       2.82028302  F      -0.00000031      -0.00000002      -0.00000008
W       41.68775332      51.14781005       0.96141542  F      -0.00000052      -0.00000025       0.00000011
W       44.28948846      51.15384682       1.80321372  F      -0.00000007      -0.00000037      -0.00000025
W       39.08591129      51.14390264       2.86480594  F      -0.00000021       0.00000008       0.00000004
W       37.78545101      53.39897570       1.00227882  F      -0.00000040       0.00000013      -0.00000005
W       40.38707815      53.40238898       1.87001969  F      -0.00000019       0.00000015       0.00000035
W       42.98866675      53.40711859       2.72594553  F       0.00000015      -0.00000024       0.00000025
W       41.68773302      55.66102889       0.88356140  F      -0.00000027       0.00000000       0.00000003
W       44.28992608      55.66404776       1.74054002  F      -0.00000026       0.00000009       0.00000025
W       39.08651607      55.65666519       2.78116474  F       0.00000024       0.00000029       0.00000013
W       37.78519012      57.91073581       0.93066628  F      -0.00000001       0.00000002       0.00000015
W       40.38707374      57.91579884       1.80307979  F      -0.00000024       0.00000010       0.00000027
W       42.98823464      57.91826695       2.66942011  F      -0.00000007       0.00000021       0.00000022
W       41.68633413      60.17837939       0.83146855  T       0.00000000       0.00000000       0.00000000
W       44.29146938      60.17205197       1.70228840  F      -0.00000006       0.00000013       0.00000014
W       39.08244751      60.17607413       2.72404948  T       0.00000000       0.00000000       0.00000000
W       37.77995637      62.43205199       0.88615108  T       0.00000000       0.00000000       0.00000000
W       40.38397241      62.43414623       1.76257437  T       0.00000000       0.00000000       0.00000000
W       42.98804938      62.43601080       2.63559269  T       0.00000000       0.00000000       0.00000000
W       41.68573224      64.69174954       0.80656000  T       0.00000000       0.00000000       0.00000000
W       44.28998038      64.69313213       1.68235620  T       0.00000000       0.00000000       0.00000000
W       39.08156760      64.68997995       2.69168664  T       0.00000000       0.00000000       0.00000000
W       37.77912973      66.94586760       0.85609247  T       0.00000000       0.00000000       0.00000000
W       40.38337145      66.94753500       1.73837768  T       0.00000000       0.00000000       0.00000000
W       42.98767844      66.94893022       2.61857462  T       0.00000000       0.00000000       0.00000000
W       41.68533602      69.20473898       0.78901098  T       0.00000000       0.00000000       0.00000000
W       44.28976147      69.20576693       1.67143142  T       0.00000000       0.00000000       0.00000000
W       39.08097580      69.20336573       2.66838790  T       0.00000000       0.00000000       0.00000000
W       45.59053417      12.80151279      -0.73177021  T       0.00000000       0.00000000       0.00000000
W       48.19649172      12.80180975       0.23027072  T       0.00000000       0.00000000       0.00000000
W       50.80244928      12.80151279       1.19231164  T       0.00000000       0.00000000       0.00000000
W       49.49950088      15.05789033      -0.66848878  T       0.00000000       0.00000000       0.00000000
W       52.10554791      15.05720667       0.29679629  T       0.00000000       0.00000000       0.00000000
W       46.89348256      15.05789033       1.12903021  T       0.00000000       0.00000000       0.00000000
W       45.59038376      17.31372608      -0.73960341  T       0.00000000       0.00000000       0.00000000
W       48.19649172      17.31414348       0.23027072  T       0.00000000       0.00000000       0.00000000
W       50.80259969      17.31372608       1.20014485  T       0.00000000       0.00000000       0.00000000
W       49.49958993      19.57017334      -0.66374305  T       0.00000000       0.00000000       0.00000000
W       52.10583440      19.56919292       0.31069170  T       0.00000000       0.00000000       0.00000000
W       46.89339351      19.57017334       1.12428449  T       0.00000000       0.00000000       0.00000000
W       45.59078203      21.83349309      -0.75653581  F       0.00000017       0.00000040      -0.00000003
W       48.19639062      21.83375543       0.22423745  F      -0.00000031       0.00000009      -0.00000007
W       50.80199345      21.83374329       1.20551885  F      -0.00000003      -0.00000021       0.00000016
W       49.49904500      24.08843936      -0.66938626  F      -0.00000011      -0.00000012       0.00000001
W       52.10509248      24.08782234       0.31929137  F       0.00000020      -0.00000025      -0.00000010
W       46.89310594      24.08823685       1.10497092  F      -0.00000016      -0.00000034       0.00000004
W       45.58909970      26.33972306      -0.78732178  F      -0.00000008      -0.00000011       0.00000010
W       48.19580233      26.34068268       0.21021756  F      -0.00000039       0.00000034       0.00000011
W       50.80221519      26.34043688       1.20913831  F      -0.00000031       0.00000025      -0.00000013
W       49.49877602      28.59308008      -0.67433790  F       0.00000004      -0.00000025      -0.00000012
W       52.10585878      28.59182542       0.33718837  F       0.00000039      -0.00000035       0.00000003
W       46.89165428      28.59227712       1.07715812  F      -0.00000050      -0.00000029      -0.00000008
W       45.58556800      30.84282188      -0.83896767  F      -0.00000056       0.00000007      -0.00000043
W       48.19379113      30.84454309       0.18872214  F       0.00000001       0.00000034      -0.00000004
W       50.80320637      30.84440242       1.22121628  F      -0.00000035       0.00000044      -0.00000016
W       49.49824514      33.09522294      -0.67867101  F       0.00000037      -0.00000009       0.00000008
W       52.11109275      33.09371724       0.38515845  F      -0.00000006       0.00000016      -0.00000041
W       46.88518948      33.09371607       1.02000167  F      -0.00000051      -0.00000007       0.00000029
W       45.57243320      35.34363014      -0.96329702  F      -0.00000033       0.00000006      -0.00000010
W       48.18727915      35.34253623       0.13456753  F      -0.00000003       0.00000026       0.00000010
W       50.80869067      35.34270403       1.26746901  F       0.00000013      -0.00000007       0.00000033
W       49.49784483      37.58648069      -0.68114994  F      -0.00000018      -0.00000015       0.00000003
W       52.12666517      37.59480799       0.56054118  F       0.00000032      -0.00000008      -0.00000008
W       46.86801098      37.59430054       0.83365571  F      -0.00000022       0.00000007      -0.00000033
W       45.56406882      39.85219666      -1.28728598  F      -0.00000017       0.00000044       0.00000020
W       48.17680777      39.85558002      -0.22880028  F      -0.00000048      -0.00000024       0.00000061
W       50.81708250      39.85516273       1.61349420  F       0.00000042      -0.00000003       0.00000047
W       49.49657400      42.14165531       0.68777278  F       0.00000015       0.00000002      -0.00000025
W       52.12214374      42.13250972       1.14675666  F       0.00000026      -0.00000029       0.00000019
W       46.87178225      42.13348386       2.98852684  F      -0.00000020      -0.00000013      -0.00000070
W       45.58397750      44.39042884       1.03853210  F      -0.00000035      -0.00000015       0.00000001
W       48.19377355      44.40592611       1.74133353  F       0.00000051       0.00000023      -0.00000046
W       50.80083552      44.40553007       2.38922738  F       0.00000049       0.00000020      -0.00000025
W       49.49731164      46.65899964       0.68137768  F       0.00000006      -0.00000007      -0.00000032
W       52.10235533      46.65301435       1.42324700  F      -0.00000012       0.00000018      -0.00000006
W       46.89229184      46.65371799       2.70307613  F       0.00000037       0.00000067      -0.00000036
W       45.58954678      48.90196725       0.87702419  F       0.00000023      -0.00000009      -0.00000041
W       48.19396925      48.90771012       1.66981533  F      -0.00000001      -0.00000020      -0.00000042
W       50.80084031      48.90736021       2.45167722  F      -0.00000001      -0.00000020      -0.00000028
W       49.49749956      51.16000703       0.67677372  F       0.00000029      -0.00000013      -0.00000064
W       52.10210700      51.15806075       1.48978081  F       0.00000033      -0.00000010      -0.00000059
W       46.89273133      51.15854055       2.62712120  F       0.00000003      -0.00000010      -0.00000049
W       45.59137038      53.41111478       0.80628808  F       0.00000034       0.00000027       0.00000013
W       48.19541552      53.41310359       1.64057146  F      -0.00000037       0.00000037      -0.00000007
W       50.79984380      53.41309949       2.47140550  F       0.00000013       0.00000065      -0.00000024