479
Lattice="81.25022387845982 0.0 0.0 0.0 84.43770953030304 0.0 0.0 0.0 2.8726292138692044" Properties=species:S:1:pos:R:3:fix_mask:L:1:forces:R:3 energy=-4743.101261439615 pbc="T T T"
Nb      13.40345043      29.69933453      -0.27808878  T       0.00000000       0.00000000       0.00000000
Nb      13.42979955      34.39328956      -0.33544389  T       0.00000000       0.00000000       0.00000000
Nb      12.10286490      36.74189883       0.58164713  T       0.00000000       0.00000000       0.00000000
Nb      10.78300139      39.09008463      -1.37712148  T       0.00000000       0.00000000       0.00000000
Nb      13.48696121      39.08981892      -0.41423768  T       0.00000000       0.00000000       0.00000000
Nb      12.17385781      41.43691815       0.49462016  T       0.00000000       0.00000000       0.00000000
Nb      10.85934951      43.78213287       1.40611469  T       0.00000000       0.00000000       0.00000000
Nb      13.57012062      43.78205749       2.36080770  T       0.00000000       0.00000000       0.00000000
Nb      12.25177658      46.12564118       3.27509487  T       0.00000000       0.00000000       0.00000000
Nb      13.63881917      48.46803146       2.27349490  T       0.00000000       0.00000000       0.00000000
Nb      12.30305061      50.81127002       3.20192124  T       0.00000000       0.00000000       0.00000000
Nb      13.67423525      53.15467023       2.20955325  T       0.00000000       0.00000000       0.00000000
Nb      21.54677467      20.35720204      -0.12443982  T       0.00000000       0.00000000       0.00000000
Nb      20.17864355      22.68415697       0.79452335  T       0.00000000       0.00000000       0.00000000
Nb      18.81576271      25.01759803      -1.15588558  T       0.00000000       0.00000000       0.00000000
Nb      21.52924119      25.02487947      -0.17545640  T       0.00000000       0.00000000       0.00000000
Nb      16.10506623      25.01328724       0.74051113  T       0.00000000       0.00000000       0.00000000
Nb      14.75134878      27.35478503      -1.20494218  T       0.00000000       0.00000000       0.00000000
Nb      17.45879467      27.35644290      -0.23164529  T       0.00000000       0.00000000       0.00000000
Nb      20.16800904      27.35965652       0.74462343  T       0.00000000       0.00000000       0.00000000
Nb      18.81407781      29.70020794      -1.20631945  T       0.00000000       0.00000000       0.00000000
Nb      21.52139114      29.70221346      -0.23003934  T       0.00000000       0.00000000       0.00000000
Nb      16.10831336      29.69944020       0.69302044  T       0.00000000       0.00000000       0.00000000
Nb      14.76504951      32.04542346      -1.25616776  T       0.00000000       0.00000000       0.00000000
Nb      17.46827405      32.04495675      -0.28514989  T       0.00000000       0.00000000       0.00000000
Nb      20.17203032      32.04487064       0.68809268  T       0.00000000       0.00000000       0.00000000
Nb      18.83317367      34.39158365      -1.26847127  T       0.00000000       0.00000000       0.00000000
Nb      21.53467557      34.39079944      -0.29543238  T       0.00000000       0.00000000       0.00000000
Nb      16.13162901      34.39245153       0.63344804  T       0.00000000       0.00000000       0.00000000
Nb      14.80485391      36.74124333      -1.32466924  T       0.00000000       0.00000000       0.00000000
Nb      17.50604240      36.74044897      -0.35683997  T       0.00000000       0.00000000       0.00000000
Nb      20.20636465      36.73949343       0.61291345  T       0.00000000       0.00000000       0.00000000
Nb      18.89232044      39.08902491      -1.35770716  T       0.00000000       0.00000000       0.00000000
Nb      21.58925430      39.09615770      -0.38307642  F       0.00000012      -0.00000023      -0.00000024
Nb      16.19013741      39.08947603       0.54967190  T       0.00000000       0.00000000       0.00000000
Nb      14.88083459      41.43689588      -1.41888132  T       0.00000000       0.00000000       0.00000000
Nb      17.58750967      41.43686579      -0.45940153  T       0.00000000       0.00000000       0.00000000
Nb      20.29377084      41.43682370       0.50056222  T       0.00000000       0.00000000       0.00000000
Nb      18.99331490      43.78182151       1.39558973  T       0.00000000       0.00000000       0.00000000
Nb      21.70603223      43.78944132       2.35199734  F       0.00000034      -0.00000036      -0.00000002
Nb      16.28138711      43.78195762       3.31491020  T       0.00000000       0.00000000       0.00000000
Nb      14.96566036      46.12520861       1.35298951  T       0.00000000       0.00000000       0.00000000
Nb      17.68048046      46.12465535       2.30215615  T       0.00000000       0.00000000       0.00000000
Nb      20.39644755      46.12393837       3.24955089  T       0.00000000       0.00000000       0.00000000
Nb      19.06997720      48.46627909       1.29345417  T       0.00000000       0.00000000       0.00000000
Nb      21.79862314      48.46853754       2.23187182  F      -0.00000008      -0.00000003       0.00000022
Nb      16.35405523      48.46722103       3.22068955  T       0.00000000       0.00000000       0.00000000
Nb      15.01749605      50.81048112       1.27566506  T       0.00000000       0.00000000       0.00000000
Nb      17.73210950      50.80969860       2.22033733  T       0.00000000       0.00000000       0.00000000
Nb      20.44664255      50.80904737       3.16284381  T       0.00000000       0.00000000       0.00000000
Nb      19.09970771      53.15434301       1.22370396  T       0.00000000       0.00000000       0.00000000
Nb      21.81102985      53.15521154       2.16324658  T       0.00000000       0.00000000       0.00000000
Nb      16.38725472      53.15430553       3.15398474  T       0.00000000       0.00000000       0.00000000
Nb      15.03815040      55.49991727       1.21950679  T       0.00000000       0.00000000       0.00000000
Nb      17.74876691      55.50076375       2.16181647  T       0.00000000       0.00000000       0.00000000
Nb      20.45791614      55.50279386       3.10134826  T       0.00000000       0.00000000       0.00000000
Nb      19.10291247      57.85112797       1.17000746  T       0.00000000       0.00000000       0.00000000
Nb      21.80779303      57.85677648       2.10562205  T       0.00000000       0.00000000       0.00000000
Nb      16.39549088      57.84798702       3.10309137  T       0.00000000       0.00000000       0.00000000
Nb      17.74688907      60.19991130       2.11360839  T       0.00000000       0.00000000       0.00000000
Nb      20.45040816      60.20676987       3.04936096  T       0.00000000       0.00000000       0.00000000
Nb      19.09285604      62.55678505       1.12230139  T       0.00000000       0.00000000       0.00000000
Nb      21.79193546      62.56901473       2.05304721  T       0.00000000       0.00000000       0.00000000
Nb      27.02058777      15.75406963      -0.95155742  T       0.00000000       0.00000000       0.00000000
Nb      29.74798180      15.78938303       0.05344023  T       0.00000000       0.00000000       0.00000000
Nb      22.91892902      18.03693193      -1.03987568  T       0.00000000       0.00000000       0.00000000
Nb      25.64562250      18.06488493      -0.04143173  T       0.00000000       0.00000000       0.00000000
Nb      28.37498019      18.10004566       0.96415658  T       0.00000000       0.00000000       0.00000000
Nb      26.99799619      20.40761619      -1.00296304  T       0.00000000       0.00000000       0.00000000
Nb      29.72941732      20.44613286       0.00738566  T       0.00000000       0.00000000       0.00000000
Nb      24.26997461      20.37793805       0.86810131  T       0.00000000       0.00000000       0.00000000
Nb      22.89700552      22.69741444      -1.09210154  T       0.00000000       0.00000000       0.00000000
Nb      25.62051477      22.71829035      -0.09782606  T       0.00000000       0.00000000       0.00000000
Nb      28.35000217      22.74981759       0.90730770  T       0.00000000       0.00000000       0.00000000
Nb      26.97044448      25.05786917      -1.06539013  T       0.00000000       0.00000000       0.00000000
Nb      29.70152279      25.09133077      -0.05615766  T       0.00000000       0.00000000       0.00000000
Nb      24.24685829      25.03717626       0.81120119  T       0.00000000       0.00000000       0.00000000
Nb      22.88000100      27.36561116      -1.14742854  T       0.00000000       0.00000000       0.00000000
Nb      25.59639171      27.37653255      -0.16023721  T       0.00000000       0.00000000       0.00000000
Nb      28.31872225      27.38863583       0.82535453  F      -0.00000006       0.00000011       0.00000034
Nb      26.93853535      29.70520312      -1.14669220  F       0.00000044       0.00000013       0.00000011
Nb      29.65573495      29.71551930      -0.15773795  F       0.00000024       0.00000015       0.00000008
Nb      24.23133808      29.70658100       0.75061698  T       0.00000000       0.00000000       0.00000000
Nb      22.87693434      32.04561930      -1.20827064  T       0.00000000       0.00000000       0.00000000
Nb      25.56939126      32.04261757      -0.23012733  F      -0.00000011       0.00000006       0.00000041
Nb      28.26712859      32.03735598       0.74732668  F      -0.00000023      -0.00000017      -0.00000006
Nb      26.90430102      34.38490060      -1.20783272  F      -0.00000015       0.00000000       0.00000009
Nb      29.59542531      34.37296576      -0.22917137  F       0.00000001       0.00000023      -0.00000026
Nb      24.21993804      34.39327299       0.68865718  F       0.00000019      -0.00000025      -0.00000002
Nb      22.89403703      36.74712692      -1.27595331  F       0.00000013      -0.00000037      -0.00000011
Nb      25.57679308      36.74497430      -0.29826736  F       0.00000017       0.00000008       0.00000036
Nb      28.25959969      36.72880780       0.67565044  F      -0.00000021       0.00000009       0.00000019
Nb      26.96719647      39.09310624      -1.30841130  F      -0.00000011      -0.00000035       0.00000034
Nb      29.65618145      39.07004649      -0.33778123  F       0.00000004       0.00000022      -0.00000028
Nb      24.27907988      39.10244093       0.59255665  F      -0.00000004      -0.00000006       0.00000028
Nb      22.99427787      41.45031791      -1.40201891  F      -0.00000007      -0.00000037      -0.00000013
Nb      25.69456084      41.45040836      -0.43498711  F      -0.00000024      -0.00000005      -0.00000007
Nb      28.39464490      41.43234904       0.52986143  F      -0.00000001       0.00000029       0.00000003
Nb      27.13142300      43.78617600       1.39577203  F       0.00000005      -0.00000026       0.00000012
Nb      29.84407125      43.76332721       2.35067942  F       0.00000015       0.00000050       0.00000047
Nb      24.41782418      43.79679367       3.31009990  F      -0.00000002      -0.00000057      -0.00000027
Nb      23.12064283      46.13389388       1.32344362  F       0.00000031      -0.00000013       0.00000021
Nb      25.84536925      46.13079377       2.27426485  F      -0.00000021      -0.00000010       0.00000004
Nb      28.56847611      46.11382817       3.22330616  F       0.00000024      -0.00000009      -0.00000002
Nb      27.25536896      48.45957114       1.24638613  F      -0.00000013       0.00000019      -0.00000001
Nb      29.97565037      48.44867035       2.18146034  F      -0.00000032       0.00000012      -0.00000003
Nb      24.52629740      48.46960082       3.17455791  F       0.00000010      -0.00000000       0.00000010
Nb      23.17963302      50.80840944       1.22560790  F      -0.00000019      -0.00000017       0.00000014
Nb      25.90605336      50.80402093       2.16589434  F       0.00000014      -0.00000002       0.00000003
Nb      28.62645644      50.79911227       3.09996276  F       0.00000045       0.00000025      -0.00000018
Nb      27.25284693      53.15131121       1.16185605  F      -0.00000018       0.00000018      -0.00000007
Nb      29.95429592      53.16361520       2.07974405  F       0.00000009       0.00000010      -0.00000022
Nb      24.53804750      53.14998646       3.10043281  F      -0.00000013      -0.00000004       0.00000018
Nb      23.16464312      55.50700633       1.16425572  T       0.00000000       0.00000000       0.00000000
Nb      25.87824363      55.50564838       2.09930007  F       0.00000017       0.00000031      -0.00000001
Nb      28.57481165      55.52129096       3.02120851  F      -0.00000016      -0.00000023      -0.00000035
Nb      27.20369337      57.88470257       1.08327982  T       0.00000000       0.00000000       0.00000000
Nb      29.89165585      57.90935430       1.99470473  F       0.00000015      -0.00000021      -0.00000003
Nb      24.50874322      57.86683213       3.03534441  T       0.00000000       0.00000000       0.00000000
Nb      23.15021136      60.21809039       1.10691492  T       0.00000000       0.00000000       0.00000000
Nb      25.84472967      60.23671433       2.02888412  T       0.00000000       0.00000000       0.00000000
Nb      28.53253594      60.26640593       2.93936648  T       0.00000000       0.00000000       0.00000000
Nb      27.17540913      62.61628753       1.01765048  T       0.00000000       0.00000000       0.00000000
Nb      29.85987127      62.65499475       1.92121642  T       0.00000000       0.00000000       0.00000000
Nb      24.48640118      62.58794855       2.97647244  T       0.00000000       0.00000000       0.00000000
Nb      23.12862284      64.93849711       1.05296857  T       0.00000000       0.00000000       0.00000000
Nb      25.81879090      64.96545991       1.96973700  T       0.00000000       0.00000000       0.00000000
Nb      28.50541521      65.00083807       2.87822389  T       0.00000000       0.00000000       0.00000000
Nb      27.15100870      67.34663261       0.96268549  T       0.00000000       0.00000000       0.00000000
Nb      29.83906414      67.38338772       1.87086092  T       0.00000000       0.00000000       0.00000000
Nb      24.46256555      67.31407534       2.92271472  T       0.00000000       0.00000000       0.00000000
Nb      28.48630544      69.72609560       2.83218815  T       0.00000000       0.00000000       0.00000000
Nb      33.83609557      13.49843043       0.13372731  T       0.00000000       0.00000000       0.00000000
Nb      36.55270752      13.51780804       1.12894194  T       0.00000000       0.00000000       0.00000000
Nb      35.19280595      15.84987385      -0.81311888  T       0.00000000       0.00000000       0.00000000
Nb      37.90913000      15.86827993       0.18435568  T       0.00000000       0.00000000       0.00000000
Nb      32.47252296      15.82279661       1.05808873  T       0.00000000       0.00000000       0.00000000
Nb      31.10400919      18.13863225      -0.89891341  T       0.00000000       0.00000000       0.00000000
Nb      33.82940297      18.17431961       0.10982603  T       0.00000000       0.00000000       0.00000000
Nb      36.54967844      18.20169740       1.11440829  T       0.00000000       0.00000000       0.00000000
Nb      35.18660188      20.52666953      -0.83667044  T       0.00000000       0.00000000       0.00000000
Nb      37.90670375      20.55372170       0.17153817  T       0.00000000       0.00000000       0.00000000
Nb      32.46035912      20.48860169       1.02243689  T       0.00000000       0.00000000       0.00000000
Nb      31.08391348      22.79237297      -0.94918600  T       0.00000000       0.00000000       0.00000000
Nb      33.81711159      22.83949345       0.07259114  T       0.00000000       0.00000000       0.00000000
Nb      36.55207805      22.88314225       1.08978942  F       0.00000025       0.00000019       0.00000009
Nb      35.18208336      25.18309167      -0.89057349  F       0.00000005       0.00000019      -0.00000019
Nb      37.91607037      25.23720403       0.13902770  F      -0.00000024      -0.00000012      -0.00000039
Nb      32.44102998      25.13149758       0.95477970  F       0.00000029       0.00000003      -0.00000004
Nb      31.05163028      27.41762877      -1.04198721  F       0.00000016      -0.00000019       0.00000014
Nb      33.79358584      27.46686033      -0.01705442  F      -0.00000031      -0.00000005       0.00000003
Nb      36.53523460      27.53186308       1.02167258  F      -0.00000029       0.00000011      -0.00000001
Nb      35.13009465      29.80717473      -0.98323249  F       0.00000018      -0.00000004       0.00000005
Nb      37.87460244      29.88505753       0.06692569  F       0.00000050      -0.00000010      -0.00000004
Nb      32.38766649      29.74787029       0.85417331  F      -0.00000060       0.00000037      -0.00000001
Nb      30.97916184      32.04498496      -1.13274275  F      -0.00000044      -0.00000004      -0.00000029
Nb      33.71047782      32.08099928      -0.11533343  F      -0.00000005      -0.00000017      -0.00000001
Nb      36.45764591      32.15008620       0.92784905  F       0.00000013       0.00000048      -0.00000018
Nb      35.03623946      34.41477364      -1.08682343  F       0.00000025       0.00000005      -0.00000004
Nb      37.79195478      34.48976091      -0.03386854  F       0.00000007       0.00000026       0.00000003
Nb      32.30385650      34.37676900       0.76532003  F      -0.00000004       0.00000016      -0.00000027
Nb      30.94920393      36.71033308      -1.21851893  F       0.00000025       0.00000028      -0.00000022
Nb      33.65478270      36.71073045      -0.22465384  F       0.00000044      -0.00000007      -0.00000022
Nb      36.38503128      36.74762166       0.79859306  F       0.00000037      -0.00000021       0.00000020
Nb      35.05166873      39.04951316      -1.24872404  F      -0.00000007       0.00000027      -0.00000036
Nb      37.77639944      39.08512897      -0.22752805  F      -0.00000002       0.00000023      -0.00000007
Nb      32.34925459      39.04920474       0.63675517  F       0.00000051       0.00000010      -0.00000020
Nb      31.09487402      41.40697606      -1.37985189  F       0.00000042       0.00000002      -0.00000016
Nb      33.79538896      41.39207434      -0.41839227  F       0.00000058      -0.00000044      -0.00000034
Nb      36.49741914      41.40234634       0.54456043  F      -0.00000018       0.00000037       0.00000012
Nb      35.25481233      43.74986707       1.35553583  F       0.00000002       0.00000009      -0.00000007
Nb      37.94520829      43.78620380       2.26039375  F       0.00000017       0.00000002      -0.00000004
Nb      32.55277931      43.74526070       3.29674673  F      -0.00000003      -0.00000014      -0.00000032
Nb      31.28438415      46.09763189       1.28893410  F       0.00000010      -0.00000012       0.00000024
Nb      33.98717671      46.10169754       2.20699546  F      -0.00000027      -0.00000008       0.00000008
Nb      36.67324630      46.13807776       3.09607518  F      -0.00000018       0.00000050       0.00000025
Nb      35.36293215      48.49145287       1.11058304  F      -0.00000027      -0.00000033      -0.00000050
Nb      38.02868627      48.56097291       1.96583793  F       0.00000015      -0.00000020      -0.00000036
Nb      32.67951403      48.45471278       3.09589642  F       0.00000013      -0.00000037      -0.00000023
Nb      31.33008123      50.80874960       1.14228242  F      -0.00000017       0.00000039      -0.00000002
Nb      34.01347833      50.84524047       2.03167100  F       0.00000009      -0.00000031      -0.00000022
Nb      36.67997065      50.91175630       2.89685090  F      -0.00000024       0.00000034      -0.00000016
Nb      35.30797520      53.25911977       0.97352360  F      -0.00000051      -0.00000016      -0.00000013
Nb      37.97222171      53.33932620       1.83335382  F      -0.00000005       0.00000002       0.00000004
Nb      32.63817416      53.19869913       2.97392364  F       0.00000017       0.00000036      -0.00000015
Nb      31.25850334      55.55338934       1.04977784  F      -0.00000024       0.00000044      -0.00000020
Nb      33.93155443      55.60617600       1.93048565  F      -0.00000007       0.00000013      -0.00000024
Nb      36.60087812      55.67481447       2.79896678  F      -0.00000032       0.00000015      -0.00000039
Nb      35.23882786      58.01313571       0.89165476  F       0.00000003       0.00000010      -0.00000013
Nb      37.91814246      58.07225130       1.77017588  F       0.00000018       0.00000025      -0.00000026
Nb      32.56645785      57.95597989       2.88596149  F       0.00000035      -0.00000018      -0.00000012
Nb      31.21439364      60.30909288       0.96431562  T       0.00000000       0.00000000       0.00000000
Nb      33.89080022      60.35467326       1.85487944  F      -0.00000025      -0.00000015       0.00000031
Nb      36.57207471      60.40365500       2.74269521  F      -0.00000011      -0.00000006      -0.00000002
Nb      35.23226276      62.74108657       0.84354206  T       0.00000000       0.00000000       0.00000000
Nb      37.92758256      62.77085434       1.74716154  T       0.00000000       0.00000000       0.00000000
Nb      32.54377031      62.69972283       2.81831956  T       0.00000000       0.00000000       0.00000000
Nb      31.19157425      65.04121172       0.90877633  T       0.00000000       0.00000000       0.00000000
Nb      33.88121648      65.07958552       1.81209448  T       0.00000000       0.00000000       0.00000000
Nb      36.57643778      65.10939678       2.71979840  T       0.00000000       0.00000000       0.00000000
Nb      35.22511137      67.44823631       0.81741577  T       0.00000000       0.00000000       0.00000000
Nb      37.92482803      67.46816628       1.73304914  T       0.00000000       0.00000000       0.00000000
Nb      32.52980617      67.41901122       2.77879667  T       0.00000000       0.00000000       0.00000000
Nb      31.17807601      69.75923362       0.87143843  T       0.00000000       0.00000000       0.00000000
Nb      33.87359465      69.78754238       1.78580956  T       0.00000000       0.00000000       0.00000000
Nb      36.57302144      69.80838294       2.70390411  T       0.00000000       0.00000000       0.00000000
Nb      37.92320568      72.16273989       1.72365432  T       0.00000000       0.00000000       0.00000000
Nb      39.26667586      13.52942563      -0.75135968  T       0.00000000       0.00000000       0.00000000
Nb      41.97928234      13.53327537       0.23938577  T       0.00000000       0.00000000       0.00000000
Nb      44.69188882      13.52942563       1.23013121  T       0.00000000       0.00000000       0.00000000
Nb      43.33570580      15.87744790      -0.70015840  T       0.00000000       0.00000000       0.00000000
Nb      46.04943468      15.86827993       0.29441585  T       0.00000000       0.00000000       0.00000000
Nb      40.62285887      15.87744790       1.17892993  T       0.00000000       0.00000000       0.00000000
Nb      39.26563565      18.21833071      -0.75810226  T       0.00000000       0.00000000       0.00000000
Nb      41.97928234      18.22384719       0.23938577  T       0.00000000       0.00000000       0.00000000
Nb      44.69292903      18.21833071       1.23687379  T       0.00000000       0.00000000       0.00000000
Nb      43.33628115      20.56733159      -0.69614849  T       0.00000000       0.00000000       0.00000000
Nb      46.05186093      20.55372170       0.30723337  T       0.00000000       0.00000000       0.00000000
Nb      40.62228352      20.56733159       1.17492003  T       0.00000000       0.00000000       0.00000000
Nb      39.27526569      22.91709499      -0.76847369  F       0.00000004       0.00000009      -0.00000007
Nb      41.98666599      22.93179075       0.23807839  F      -0.00000009       0.00000012      -0.00000013
Nb      44.69445183      22.92377053       1.24189479  F       0.00000000      -0.00000003       0.00000013
Nb      43.34616806      25.28761615      -0.69685892  F      -0.00000015      -0.00000000       0.00000034
Nb      46.05745140      25.25836533       0.31990778  F      -0.00000014      -0.00000005       0.00000030
Nb      40.63652569      25.27808391       1.16131330  F       0.00000008       0.00000008      -0.00000035
Nb      39.26854276      27.59780266      -0.81015872  F      -0.00000020       0.00000021      -0.00000020
Nb      41.99077514      27.63765467       0.22499827  F       0.00000021      -0.00000031      -0.00000007
Nb      44.70766940      27.62750271       1.25714123  F       0.00000032      -0.00000032       0.00000004
Nb      43.34791292      29.97808515      -0.69282288  F       0.00000005       0.00000002      -0.00000013
Nb      46.08026777      29.93742936       0.36356571  F       0.00000020      -0.00000005      -0.00000024
Nb      40.61405719      29.95455846       1.12295362  F       0.00000000      -0.00000026      -0.00000005
Nb      39.21209184      32.23515343      -0.87990660  F       0.00000022      -0.00000041      -0.00000037
Nb      41.96692563      32.29357139       0.20152083  F      -0.00000013      -0.00000033      -0.00000009
Nb      44.71971833      32.28698052       1.28813829  F      -0.00000033      -0.00000027       0.00000033
Nb      43.33878655      34.60262294      -0.69258863  F      -0.00000006      -0.00000006       0.00000017
Nb      46.11223617      34.56238970       0.42812698  F      -0.00000014      -0.00000001      -0.00000001
Nb      40.56357755      34.57090129       1.05761950  F      -0.00000016       0.00000001      -0.00000012
Nb      39.14835390      36.82093534      -1.00093999  F      -0.00000015      -0.00000042      -0.00000012
Nb      41.93734153      36.88174165       0.14670849  F      -0.00000028       0.00000051       0.00000001
Nb      44.73284475      36.87900085       1.33188610  F       0.00000001       0.00000008      -0.00000049
Nb      43.33364077      39.14708995      -0.70134792  F      -0.00000006      -0.00000014      -0.00000025
Nb      46.13525375      39.13861578       0.57959730  F      -0.00000017      -0.00000047      -0.00000057
Nb      40.52955766      39.14253448       0.88353608  F       0.00000013      -0.00000052      -0.00000007
Nb      39.20170229      41.43831085      -1.34642470  F      -0.00000046       0.00000025      -0.00000029
Nb      41.93209140      41.48170999      -0.23544217  F       0.00000043       0.00000034      -0.00000021
Nb      44.72996944      41.47961109       1.67989655  F      -0.00000010       0.00000051      -0.00000054
Nb      43.32921071      43.90308509       0.71114132  F       0.00000055       0.00000035       0.00000014
Nb      46.04873312      43.85568863       1.19054040  F      -0.00000061      -0.00000024      -0.00000057
Nb      40.60718979      43.86219027       3.10245221  F      -0.00000006       0.00000021      -0.00000035
Nb      39.34249369      46.20761899       1.06593941  F       0.00000018      -0.00000006      -0.00000003
Nb      42.00229241      46.29044442       1.81085804  F      -0.00000007       0.00000034       0.00000002
Nb      44.65246707      46.28678588       2.46676579  F      -0.00000035       0.00000006      -0.00000047
Nb      43.32724529      48.69966452       0.69547259  F      -0.00000004       0.00000019       0.00000030
Nb      45.97409937      48.64317193       1.47977574  F      -0.00000010      -0.00000018       0.00000001
Nb      40.68120169      48.65210440       2.78504227  F      -0.00000013       0.00000026      -0.00000020
Nb      39.33723467      51.00102096       0.87141202  F      -0.00000023      -0.00000041      -0.00000004
Nb      41.99495656      51.07685601       1.70986793  F      -0.00000004      -0.00000008       0.00000008
Nb      44.65750189      51.07053526       2.54482658  F       0.00000047       0.00000023      -0.00000004
Nb      43.32325682      53.45035248       0.69008397  F       0.00000004       0.00000006      -0.00000056
Nb      46.00588143      53.40254467       1.55925256  F       0.00000009       0.00000034      -0.00000003
Nb      40.64208089      53.41872880       2.69418656  F      -0.00000005      -0.00000047      -0.00000037
Nb      39.27780770      55.74612444       0.79708047  F      -0.00000027       0.00000013      -0.00000013
Nb      41.97018971      55.79290303       1.68185130  F      -0.00000019      -0.00000020      -0.00000032
Nb      44.67158151      55.78297983       2.57502999  F      -0.00000006       0.00000011      -0.00000029
Nb      43.32161308      58.12830753       0.69452997  F      -0.00000022       0.00000003      -0.00000029
Nb      46.02951205      58.09652250       1.59870889  F      -0.00000054       0.00000041      -0.00000005
Nb      40.61292543      58.11693582       2.66151720  F       0.00000004       0.00000030      -0.00000022
Nb      39.26524462      60.44081386       0.76618558  F      -0.00000001      -0.00000010      -0.00000020
Nb      41.97091156      60.45746420       1.67454444  F      -0.00000038       0.00000034      -0.00000022
Nb      44.68081082      60.44782959       2.58785269  F       0.00000023      -0.00000014      -0.00000009
Nb      43.33045922      62.78584886       0.69504648  T       0.00000000       0.00000000       0.00000000
Nb      46.03098211      62.77085434       1.60423921  T       0.00000000       0.00000000       0.00000000
Nb      40.62810546      62.78584886       2.65635427  T       0.00000000       0.00000000       0.00000000
Nb      39.27654308      65.12754972       0.75992298  T       0.00000000       0.00000000       0.00000000
Nb      41.97928234      65.13356420       1.67570037  T       0.00000000       0.00000000       0.00000000
Nb      44.68202159      65.12754972       2.59147777  T       0.00000000       0.00000000       0.00000000