479
Lattice="81.34465109182693 0.0 0.0 0.0 84.53584116900443 0.0 0.0 0.0 2.8759677200142253" Properties=species:S:1:pos:R:3:fix_mask:L:1:forces:R:3 energy=-4756.970610441437 pbc="T T T"
Nb      13.34080013      29.72591280      -0.26521885  T       0.00000000       0.00000000       0.00000000
Nb      13.36734007      34.42701600      -0.30707286  T       0.00000000       0.00000000       0.00000000
Nb      12.04553737      36.78016034       0.61522748  T       0.00000000       0.00000000       0.00000000
Nb      10.74417045      39.13354666      -1.35190850  T       0.00000000       0.00000000       0.00000000
Nb      13.44795023      39.13298001      -0.38648054  T       0.00000000       0.00000000       0.00000000
Nb      12.17240164      41.48490918       0.50376637  T       0.00000000       0.00000000       0.00000000
Nb      10.90095789      43.83243154       1.39196942  T       0.00000000       0.00000000       0.00000000
Nb      13.61739133      43.83224667       2.34644963  T       0.00000000       0.00000000       0.00000000
Nb      12.32739437      46.17627707       3.24797145  T       0.00000000       0.00000000       0.00000000
Nb      13.73033139      48.51901356       2.24374628  T       0.00000000       0.00000000       0.00000000
Nb      12.39605226      50.86381220       3.17777036  T       0.00000000       0.00000000       0.00000000
Nb      13.76899442      53.20891656       2.19335929  T       0.00000000       0.00000000       0.00000000
Nb      21.49824883      20.37070325      -0.15655527  T       0.00000000       0.00000000       0.00000000
Nb      20.12586569      22.69856426       0.77064436  T       0.00000000       0.00000000       0.00000000
Nb      18.76088426      25.03572231      -1.17165065  T       0.00000000       0.00000000       0.00000000
Nb      21.47773637      25.04220099      -0.19712298  T       0.00000000       0.00000000       0.00000000
Nb      16.04692368      25.03223317       0.73327780  T       0.00000000       0.00000000       0.00000000
Nb      14.69115637      27.37768057      -1.20372320  T       0.00000000       0.00000000       0.00000000
Nb      17.40205232      27.37873130      -0.23489820  T       0.00000000       0.00000000       0.00000000
Nb      20.11460817      27.38113447       0.73594097  T       0.00000000       0.00000000       0.00000000
Nb      18.75857379      29.72587242      -1.20465613  T       0.00000000       0.00000000       0.00000000
Nb      21.46938362      29.72714927      -0.23390378  T       0.00000000       0.00000000       0.00000000
Nb      16.04923126      29.72562475       0.70241765  T       0.00000000       0.00000000       0.00000000
Nb      14.70346722      32.07528575      -1.23800453  T       0.00000000       0.00000000       0.00000000
Nb      17.41015705      32.07445599      -0.27003683  T       0.00000000       0.00000000       0.00000000
Nb      20.11753227      32.07392719       0.69911834  T       0.00000000       0.00000000       0.00000000
Nb      18.77625433      34.42452241      -1.24691050  T       0.00000000       0.00000000       0.00000000
Nb      21.48107000      34.42330777      -0.27719957  T       0.00000000       0.00000000       0.00000000
Nb      16.07176359      34.42579065       0.66052841  T       0.00000000       0.00000000       0.00000000
Nb      14.74846185      36.77905860      -1.29354203  T       0.00000000       0.00000000       0.00000000
Nb      17.45081620      36.77778035      -0.32538968  T       0.00000000       0.00000000       0.00000000
Nb      20.15266826      36.77630892       0.64388298  T       0.00000000       0.00000000       0.00000000
Nb      18.85208537      39.13137478      -1.32825669  T       0.00000000       0.00000000       0.00000000
Nb      21.56229210      39.12334358      -0.37541836  F      -0.00000003      -0.00000001       0.00000004
Nb      16.15065008      39.13227148       0.57998405  T       0.00000000       0.00000000       0.00000000
Nb      14.88100405      41.48485255      -1.41113186  T       0.00000000       0.00000000       0.00000000
Nb      17.58898204      41.48477630      -0.44953775  T       0.00000000       0.00000000       0.00000000
Nb      20.29611142      41.48467025       0.51277082  T       0.00000000       0.00000000       0.00000000
Nb      19.05336113      43.83167893       1.37676718  T       0.00000000       0.00000000       0.00000000
Nb      21.75615756      43.81637053       2.34191358  F      -0.00000003       0.00000001       0.00000003
Nb      16.33476525      43.83200440       3.30012145  T       0.00000000       0.00000000       0.00000000
Nb      15.04771828      46.17543272       1.32258634  T       0.00000000       0.00000000       0.00000000
Nb      17.76906974      46.17439669       2.27203660  T       0.00000000       0.00000000       0.00000000
Nb      20.49154096      46.17311799       3.22013328  T       0.00000000       0.00000000       0.00000000
Nb      19.17046993      48.51632629       1.26574338  T       0.00000000       0.00000000       0.00000000
Nb      21.87992878      48.51656770       2.22029760  F      -0.00000001       0.00000001       0.00000001
Nb      16.45024424      48.51774609       3.19323220  T       0.00000000       0.00000000       0.00000000
Nb      15.11399251      50.86266163       1.25183293  T       0.00000000       0.00000000       0.00000000
Nb      17.83178578      50.86150561       2.20099022  T       0.00000000       0.00000000       0.00000000
Nb      20.54918055      50.86045195       3.14902740  T       0.00000000       0.00000000       0.00000000
Nb      19.19989103      53.20782876       1.21552285  T       0.00000000       0.00000000       0.00000000
Nb      21.91380794      53.20814410       2.16237693  T       0.00000000       0.00000000       0.00000000
Nb      16.48479302      53.20820734       3.14299614  T       0.00000000       0.00000000       0.00000000
Nb      15.13346091      55.55600932       1.21279113  T       0.00000000       0.00000000       0.00000000
Nb      17.84677168      55.55637530       2.16149340  T       0.00000000       0.00000000       0.00000000
Nb      20.55866682      55.55775886       3.10841961  T       0.00000000       0.00000000       0.00000000
Nb      19.20184592      57.90817856       1.18046693  T       0.00000000       0.00000000       0.00000000
Nb      21.90959352      57.91304230       2.12423831  T       0.00000000       0.00000000       0.00000000
Nb      16.49154744      57.90573974       3.10960554  T       0.00000000       0.00000000       0.00000000
Nb      17.84409428      60.25914149       2.12981065  T       0.00000000       0.00000000       0.00000000
Nb      20.55039887      60.26539231       3.07319492  T       0.00000000       0.00000000       0.00000000
Nb      19.19094731      62.61799124       1.14713234  T       0.00000000       0.00000000       0.00000000
Nb      21.89148867      62.63121943       2.08434514  T       0.00000000       0.00000000       0.00000000
Nb      27.02289456      15.82887239      -0.95121074  T       0.00000000       0.00000000       0.00000000
Nb      29.77223844      15.89945265       0.07547403  T       0.00000000       0.00000000       0.00000000
Nb      22.88007177      18.05741060      -1.07273073  T       0.00000000       0.00000000       0.00000000
Nb      25.62452016      18.10649585      -0.06215543  T       0.00000000       0.00000000       0.00000000
Nb      28.37897165      18.17790985       0.96684869  T       0.00000000       0.00000000       0.00000000
Nb      26.97688225      20.44962737      -1.02613152  T       0.00000000       0.00000000       0.00000000
Nb      29.73510374      20.52712224       0.00909798  T       0.00000000       0.00000000       0.00000000
Nb      24.23091342      20.39885829       0.83677361  T       0.00000000       0.00000000       0.00000000
Nb      22.84903015      22.71271855      -1.12399958  T       0.00000000       0.00000000       0.00000000
Nb      25.58118751      22.73965608      -0.13069720  T       0.00000000       0.00000000       0.00000000
Nb      28.32865754      22.79194611       0.88493141  T       0.00000000       0.00000000       0.00000000
Nb      26.93083162      25.07976787      -1.09936841  T       0.00000000       0.00000000       0.00000000
Nb      29.67969354      25.13326013      -0.08115757  T       0.00000000       0.00000000       0.00000000
Nb      24.19958439      25.05458167       0.78359847  T       0.00000000       0.00000000       0.00000000
Nb      22.82988692      27.38610848      -1.16591977  T       0.00000000       0.00000000       0.00000000
Nb      25.55001769      27.39641593      -0.18589382  T       0.00000000       0.00000000       0.00000000
Nb      28.28210402      27.42652275       0.82319849  F       0.00000002      -0.00000000       0.00000003
Nb      26.90199301      29.74142202      -1.14244556  F       0.00000002      -0.00000002       0.00000005
Nb      29.63367944      29.78313961      -0.12788783  F       0.00000004      -0.00000001       0.00000010
Nb      24.18267768      29.73050077       0.73985901  T       0.00000000       0.00000000       0.00000000
Nb      22.82610412      32.07406948      -1.20598146  T       0.00000000       0.00000000       0.00000000
Nb      25.53717321      32.07461728      -0.22720968  F       0.00000001      -0.00000002       0.00000006
Nb      28.25820959      32.09225907       0.76932012  F       0.00000002      -0.00000002       0.00000013
Nb      26.90360566      34.42149174      -1.20790927  F      -0.00000002      -0.00000003       0.00000014
Nb      29.62699408      34.44242218      -0.20962328  F      -0.00000003      -0.00000001       0.00000024
Nb      24.18872102      34.41943503       0.68866360  F      -0.00000001      -0.00000002       0.00000006
Nb      22.86142997      36.77001325      -1.27654754  F      -0.00000003      -0.00000002       0.00000005
Nb      25.57602404      36.76370825      -0.31163802  F      -0.00000005      -0.00000003       0.00000014
Nb      28.29353309      36.76795802       0.66774602  F      -0.00000007      -0.00000002       0.00000024
Nb      26.99518506      39.10723412      -1.33224120  F      -0.00000009      -0.00000002       0.00000021
Nb      29.71180190      39.11633443      -0.35606100  F      -0.00000011       0.00000000       0.00000034
Nb      24.27866278      39.11129451       0.57909118  F      -0.00000006      -0.00000002       0.00000011
Nb      23.01106456      41.46120528      -1.41225339  F      -0.00000005      -0.00000001       0.00000007
Nb      25.72440815      41.45347389      -0.45546312  F      -0.00000009      -0.00000001       0.00000016
Nb      28.43740522      41.45521616       0.50518738  F      -0.00000012      -0.00000001       0.00000027
Nb      27.17279281      43.80195817       1.37890157  F      -0.00000008      -0.00000002       0.00000019
Nb      29.88350185      43.81040440       2.32854207  F      -0.00000009      -0.00000001       0.00000032
Nb      24.46415470      43.80454035       3.30084975  F      -0.00000006      -0.00000000       0.00000010
Nb      23.19017840      46.16150507       1.31410355  F      -0.00000003       0.00000002       0.00000005
Nb      25.89579304      46.15409929       2.26759409  F      -0.00000005      -0.00000000       0.00000011
Nb      28.60319112      46.15803311       3.21088115  F      -0.00000004      -0.00000004       0.00000021
Nb      27.29828314      48.50978181       1.23997100  F      -0.00000002      -0.00000003       0.00000012
Nb      29.99934299      48.52914281       2.16623406  F       0.00000002      -0.00000009       0.00000022
Nb      24.59173046      48.50892542       3.17371325  F      -0.00000002       0.00000001       0.00000005
Nb      23.25755505      50.86100711       1.22331065  F       0.00000001       0.00000001       0.00000002
Nb      25.96755329      50.86169003       2.16462538  F       0.00000001      -0.00000001       0.00000006
Nb      28.66920208      50.87930851       3.09131621  F       0.00000001      -0.00000006       0.00000013
Nb      27.32170741      53.22652022       1.15669558  F       0.00000003      -0.00000004       0.00000006
Nb      30.01456267      53.26747677       2.06569541  F       0.00000003      -0.00000009       0.00000013
Nb      24.61807677      53.21283503       3.10415042  F       0.00000002      -0.00000000       0.00000002
Nb      23.26821787      55.56112859       1.17654685  T       0.00000000       0.00000000       0.00000000
Nb      25.96447868      55.57472398       2.10903847  F       0.00000002      -0.00000001       0.00000002
Nb      28.66056409      55.60757026       3.02021866  F       0.00000002      -0.00000005       0.00000006
Nb      27.30778183      57.94331452       1.11427778  T       0.00000000       0.00000000       0.00000000
Nb      29.98328470      58.01192859       2.00050496  F       0.00000001      -0.00000004       0.00000004
Nb      24.61291673      57.92276622       3.06262169  T       0.00000000       0.00000000       0.00000000
Nb      23.25215577      60.27699762       1.13498665  T       0.00000000       0.00000000       0.00000000
Nb      25.94563803      60.29976088       2.06200271  T       0.00000000       0.00000000       0.00000000
Nb      28.62392574      60.34643444       2.96760512  T       0.00000000       0.00000000       0.00000000
Nb      27.26320675      62.70187347       1.04243909  T       0.00000000       0.00000000       0.00000000
Nb      29.92730077      62.77840999       1.92441917  T       0.00000000       0.00000000       0.00000000
Nb      24.58406704      62.65564606       3.01102263  T       0.00000000       0.00000000       0.00000000
Nb      23.22304383      65.01095376       1.08515732  T       0.00000000       0.00000000       0.00000000
Nb      25.90321862      65.05633797       1.99441655  T       0.00000000       0.00000000       0.00000000
Nb      28.57109273      65.12708215       2.88253343  T       0.00000000       0.00000000       0.00000000
Nb      27.21495944      67.47571303       0.96474724  T       0.00000000       0.00000000       0.00000000
Nb      29.88579754      67.54992804       1.85181005  T       0.00000000       0.00000000       0.00000000
Nb      24.54382060      67.40999913       2.94733059  T       0.00000000       0.00000000       0.00000000
Nb      28.53259422      69.89300801       2.81546453  T       0.00000000       0.00000000       0.00000000
Nb      33.87787045      13.63606633       0.16329375  T       0.00000000       0.00000000       0.00000000
Nb      36.59767045      13.65819730       1.15200734  T       0.00000000       0.00000000       0.00000000
Nb      35.23631816      15.99134107      -0.78646673  T       0.00000000       0.00000000       0.00000000
Nb      37.95530861      16.01153086       0.20264241  T       0.00000000       0.00000000       0.00000000
Nb      32.51012467      15.95544755       1.09009805  T       0.00000000       0.00000000       0.00000000
Nb      31.13107701      18.25409544      -0.87685534  T       0.00000000       0.00000000       0.00000000
Nb      33.86941937      18.31205496       0.14053432  T       0.00000000       0.00000000       0.00000000
Nb      36.59475211      18.34673857       1.14069393  T       0.00000000       0.00000000       0.00000000
Nb      35.22891053      20.66937749      -0.80784596  T       0.00000000       0.00000000       0.00000000
Nb      37.95312747      20.70203938       0.19307908  T       0.00000000       0.00000000       0.00000000
Nb      32.49033161      20.60972908       1.04783710  T       0.00000000       0.00000000       0.00000000
Nb      31.09130207      22.87656723      -0.94844324  T       0.00000000       0.00000000       0.00000000
Nb      33.85007114      22.96656004       0.09788652  T       0.00000000       0.00000000       0.00000000
Nb      36.58039461      23.01508926       1.11269967  F       0.00000002       0.00000001       0.00000002
Nb      35.18605009      25.31297667      -0.86512497  F       0.00000004       0.00000001       0.00000005
Nb      37.92861594      25.36677573       0.16187479  F       0.00000004       0.00000002       0.00000006
Nb      32.43210362      25.23100235       0.97219424  F       0.00000003       0.00000001       0.00000003
Nb      31.02586917      27.49852264      -1.02022608  F       0.00000005       0.00000000       0.00000007
Nb      33.78013334      27.58601947       0.02225673  F       0.00000006       0.00000002       0.00000010
Nb      36.53564952      27.66076831       1.06306477  F       0.00000005       0.00000003       0.00000012
Nb      35.13714144      29.93608636      -0.92619279  F       0.00000004       0.00000004       0.00000020
Nb      37.89663820      30.00396879       0.12399032  F       0.00000002       0.00000005       0.00000022
Nb      32.37999864      29.85541085       0.90515001  F       0.00000005       0.00000001       0.00000016
Nb      30.99243413      32.13803999      -1.08938557  F       0.00000002       0.00000000       0.00000021
Nb      33.74238783      32.20655659      -0.05158317  F       0.00000000       0.00000004       0.00000028
Nb      36.50383599      32.28025079       1.00408416  F      -0.00000003       0.00000007       0.00000033
Nb      35.11603427      34.55140567      -1.01417057  F      -0.00000007       0.00000008       0.00000041
Nb      37.88134169      34.61501640       0.06447658  F      -0.00000011       0.00000011       0.00000046
Nb      32.36383344      34.48802616       0.81237348  F      -0.00000005       0.00000003       0.00000034
Nb      31.01768097      36.79152883      -1.20902049  F      -0.00000009       0.00000002       0.00000036
Nb      33.75296403      36.83545228      -0.18040258  F      -0.00000011       0.00000007       0.00000046
Nb      36.50121907      36.88991587       0.89071096  F      -0.00000011       0.00000009       0.00000052
Nb      35.16435971      39.18521144      -1.20481032  F      -0.00000014       0.00000011       0.00000056
Nb      37.90762643      39.22193617      -0.08782835  F      -0.00000010       0.00000007       0.00000057
Nb      32.43378106      39.14254432       0.63867176  F      -0.00000011       0.00000006       0.00000047
Nb      31.15144104      41.47017762      -1.40568034  F      -0.00000011       0.00000001       0.00000041
Nb      33.86845850      41.49803703      -0.43291137  F      -0.00000005       0.00000005       0.00000055
Nb      36.59689570      41.54290548       0.56912205  F      -0.00000009       0.00000014       0.00000066
Nb      35.30044846      43.87199249       1.31193384  F       0.00000007      -0.00000002       0.00000062
Nb      37.96530605      43.93776695       2.14242473  F       0.00000007       0.00000005       0.00000078
Nb      32.59395122      43.83282369       3.27050966  F      -0.00000005      -0.00000000       0.00000047
Nb      31.30715187      46.17861573       1.26356518  F      -0.00000002      -0.00000004       0.00000034
Nb      33.99905952      46.22024045       2.16567600  F       0.00000002      -0.00000003       0.00000049
Nb      36.67592262      46.28009485       3.01879853  F       0.00000017      -0.00000005       0.00000062
Nb      35.36319091      48.63649659       1.06548609  F       0.00000008      -0.00000008       0.00000047
Nb      38.02794662      48.70442887       1.89277748  F       0.00000020      -0.00000005       0.00000059
Nb      32.68867039      48.57229012       3.06995380  F       0.00000004      -0.00000011       0.00000034
Nb      31.35916841      50.92212072       1.12236835  F       0.00000006      -0.00000013       0.00000022
Nb      34.03527165      50.98809840       2.00612110  F       0.00000005      -0.00000014       0.00000033
Nb      36.70102872      51.06277913       2.86372550  F       0.00000010      -0.00000010       0.00000043
Nb      35.36238952      53.41412877       0.95334753  F       0.00000003      -0.00000014       0.00000029
Nb      38.02764642      53.48343414       1.81240937  F       0.00000005      -0.00000009       0.00000036
Nb      32.69377550      53.33457867       2.95583354  F       0.00000004      -0.00000014       0.00000021
Nb      31.34282651      55.67468405       1.03638753  F       0.00000002      -0.00000009       0.00000012
Nb      34.01286773      55.75880002       1.91614538  F       0.00000000      -0.00000012       0.00000018
Nb      36.68097467      55.83656171       2.79021279  F      -0.00000001      -0.00000011       0.00000023
Nb      35.32313143      58.18327924       0.88194054  F      -0.00000003      -0.00000008       0.00000012
Nb      38.00015432      58.24297559       1.76687234  F      -0.00000005      -0.00000007       0.00000015
Nb      32.65483957      58.09903766       2.87795864  F      -0.00000001      -0.00000007       0.00000009
Nb      31.28360523      60.42970291       0.96638049  T       0.00000000       0.00000000       0.00000000
Nb      33.95640844      60.52650201       1.84168339  F      -0.00000001      -0.00000004       0.00000004
Nb      36.63683063      60.59010213       2.73338574  F      -0.00000003      -0.00000004       0.00000006
Nb      35.27184171      62.93245602       0.81311487  T       0.00000000       0.00000000       0.00000000
Nb      37.96909378      62.96848954       1.72639060  T       0.00000000       0.00000000       0.00000000
Nb      32.59106261      62.86637519       2.79778264  T       0.00000000       0.00000000       0.00000000
Nb      31.23864266      65.20765730       0.88732929  T       0.00000000       0.00000000       0.00000000
Nb      33.92006548      65.27118533       1.78229011  T       0.00000000       0.00000000       0.00000000
Nb      36.61615858      65.30917866       2.69646424  T       0.00000000       0.00000000       0.00000000
Nb      35.26327449      67.64982366       0.78930463  T       0.00000000       0.00000000       0.00000000
Nb      37.96664068      67.67157354       1.71597286  T       0.00000000       0.00000000       0.00000000
Nb      32.56804023      67.61075250       2.75018628  T       0.00000000       0.00000000       0.00000000
Nb      31.21575559      69.95111591       0.84104968  T       0.00000000       0.00000000       0.00000000
Nb      33.91039098      69.99064861       1.75710085  T       0.00000000       0.00000000       0.00000000
Nb      36.61288834      70.01440257       2.68417771  T       0.00000000       0.00000000       0.00000000
Nb      37.96531658      72.37159603       1.70935159  T       0.00000000       0.00000000       0.00000000
Nb      39.31367687      13.66990727      -0.74090455  T       0.00000000       0.00000000       0.00000000
Nb      42.02806973      13.67356403       0.23966398  T       0.00000000       0.00000000       0.00000000
Nb      44.74246259      13.66990727       1.22023250  T       0.00000000       0.00000000       0.00000000
Nb      43.38531830      16.02053846      -0.70717583  T       0.00000000       0.00000000       0.00000000
Nb      46.10083086      16.01153086       0.27668554  T       0.00000000       0.00000000       0.00000000
Nb      40.67082116      16.02053846       1.18650378  T       0.00000000       0.00000000       0.00000000
Nb      39.31287131      18.36428684      -0.74557889  T       0.00000000       0.00000000       0.00000000
Nb      42.02806973      18.36961650       0.23966398  T       0.00000000       0.00000000       0.00000000
Nb      44.74326815      18.36428684       1.22490684  T       0.00000000       0.00000000       0.00000000
Nb      43.38574125      20.71591611      -0.70444954  T       0.00000000       0.00000000       0.00000000
Nb      46.10301199      20.70203938       0.28624888  T       0.00000000       0.00000000       0.00000000
Nb      40.67039821      20.71591611       1.18377749  T       0.00000000       0.00000000       0.00000000
Nb      39.30596741      23.04696182      -0.75736290  F       0.00000002       0.00000001       0.00000002
Nb      42.02673358      23.05605033       0.24337742  F       0.00000001       0.00000000       0.00000002
Nb      44.74826783      23.04429050       1.24386820  F       0.00000001      -0.00000000       0.00000001
Nb      43.39206853      25.38962191      -0.68257560  F       0.00000003      -0.00000001       0.00000005
Nb      46.12658445      25.35944253       0.33339076  F       0.00000002      -0.00000002       0.00000005
Nb      40.66153098      25.39269971       1.17944981  F       0.00000003       0.00000001       0.00000005
Nb      39.28442992      27.70958981      -0.77681909  F       0.00000004       0.00000004       0.00000013
Nb      42.02817190      27.72361831       0.25491764  F       0.00000003       0.00000001       0.00000012
Nb      44.77279323      27.70062127       1.28524665  F       0.00000003      -0.00000002       0.00000012
Nb      43.40880736      30.03455342      -0.65030027  F      -0.00000001       0.00000002       0.00000023
Nb      46.16656002      29.98818783       0.39608737  F      -0.00000001      -0.00000003       0.00000023
Nb      40.65358557      30.04111695       1.17548144  F       0.00000000       0.00000005       0.00000023
Nb      39.26971541      32.33732199      -0.80274807  F      -0.00000004       0.00000005       0.00000035
Nb      42.03539314      32.35544139       0.27336284  F      -0.00000006       0.00000000       0.00000037
Nb      44.79976075      32.32302251       1.34485602  F      -0.00000007      -0.00000004       0.00000037
Nb      43.42411228      34.65049190      -0.59320919  F      -0.00000012      -0.00000002       0.00000050
Nb      46.19119528      34.59604744       0.49270123  F      -0.00000010      -0.00000005       0.00000049
Nb      40.65476513      34.65612113       1.16816904  F      -0.00000013       0.00000006       0.00000049
Nb      39.27032517      36.93877624      -0.86161116  F      -0.00000014       0.00000011       0.00000056
Nb      42.04015998      36.96612887       0.31306170  F      -0.00000017       0.00000007       0.00000059
Nb      44.80886414      36.92952304       1.46476212  F      -0.00000014      -0.00000002       0.00000060
Nb      43.41103548      39.26528219      -0.40769000  F      -0.00000013      -0.00000006       0.00000066
Nb      46.16412486      39.21540147       0.71761984  F      -0.00000013      -0.00000011       0.00000068
Nb      40.65751525      39.23388475       1.11906260  F      -0.00000009       0.00000000       0.00000059
Nb      39.34020094      41.54497752      -1.09299666  F      -0.00000002       0.00000016       0.00000057
Nb      42.06717227      41.64721188       0.85760961  F       0.00000002       0.00000002       0.00000071
Nb      44.77716828      41.57798884       1.86493158  F      -0.00000006      -0.00000002       0.00000078
Nb      43.40390005      43.95934276       0.22471093  F       0.00000007      -0.00000000       0.00000089
Nb      46.07673699      43.90923293       1.09860856  F       0.00000007       0.00000001       0.00000074
Nb      40.63612866      43.94868969       2.76274224  F       0.00000020       0.00000006       0.00000061
Nb      39.33836969      46.33284642       0.91656090  F       0.00000016       0.00000002       0.00000070
Nb      42.01291321      46.32959921       1.54718838  F       0.00000015       0.00000005       0.00000074
Nb      44.68265490      46.29965627       2.27895444  F       0.00000020       0.00000006       0.00000074
Nb      43.34190088      48.71664945       0.54810260  F       0.00000023       0.00000009       0.00000066
Nb      46.00265619      48.66444776       1.36843292  F       0.00000015       0.00000008       0.00000057
Nb      40.68736292      48.73214153       2.66446646  F       0.00000013       0.00000003       0.00000064
Nb      39.36235490      51.11747871       0.81724602  F       0.00000013      -0.00000005       0.00000051
Nb      42.02031727      51.12615198       1.62860667  F       0.00000014       0.00000005       0.00000054
Nb      44.67747245      51.08956380       2.45377153  F       0.00000017       0.00000009       0.00000051
Nb      43.35840650      53.50612062       0.63223809  F       0.00000008       0.00000006       0.00000040
Nb      46.02000568      53.45587220       1.49063451  F       0.00000008       0.00000012       0.00000035
Nb      40.69363092      53.51791118       2.66057851  F       0.00000006      -0.00000002       0.00000040
Nb      39.35384513      55.88822758       0.78578847  F      -0.00000001      -0.00000006       0.00000027
Nb      42.03038523      55.90076487       1.65734596  F      -0.00000001       0.00000001       0.00000028
Nb      44.70431218      55.87324913       2.53122721  F       0.00000001       0.00000008       0.00000026
Nb      43.37636165      58.26674545       0.67484149  F      -0.00000005       0.00000003       0.00000016
Nb      46.05922160      58.23153635       1.56684404  F      -0.00000003       0.00000007       0.00000014
Nb      40.68701371      58.27154228       2.65748326  F      -0.00000005      -0.00000002       0.00000017
Nb      39.33008950      60.62493241       0.76166816  F      -0.00000004      -0.00000002       0.00000007
Nb      42.03099511      60.63444453       1.67291318  F      -0.00000005      -0.00000000       0.00000007
Nb      44.73046972      60.62112715       2.58411255  F      -0.00000004       0.00000002       0.00000007
Nb      43.38179055      62.98358480       0.70386509  T       0.00000000       0.00000000       0.00000000
Nb      46.08704568      62.96848954       1.62890507  T       0.00000000       0.00000000       0.00000000
Nb      40.67434891      62.98358480       2.65143059  T       0.00000000       0.00000000       0.00000000
Nb      39.32047389      65.32816397       0.74656839  T       0.00000000       0.00000000       0.00000000
Nb      42.02806973      65.33388548       1.67764784  T       0.00000000       0.00000000       0.00000000
Nb      44.73566557      65.32816397       2.60872729  T       0.00000000       0.00000000       0.00000000