1308
Lattice="120.94175396651991 0.0 0.0 0.0 114.57639849459781 0.0 0.0 0.0 3.1826777359610503" Properties=species:S:1:pos:R:3:fix_mask:L:1:forces:R:3 energy=-13786.10893912339 pbc="T T T"
Mo      15.26421905      48.26012460       1.59133887  T       0.00000000       0.00000000       0.00000000
Mo      15.21305392      51.43521496       1.59133887  T       0.00000000       0.00000000       0.00000000
Mo      15.16135598      54.61345312       1.59133887  T       0.00000000       0.00000000       0.00000000
Mo      18.29143675      57.80021758       1.59133887  T       0.00000000       0.00000000       0.00000000
Mo      18.23589081      60.98527472       1.59133887  T       0.00000000       0.00000000       0.00000000
Mo      18.18087357      64.17399925       1.59133887  T       0.00000000       0.00000000       0.00000000
Mo      18.12679131      67.36620372       1.59133887  T       0.00000000       0.00000000       0.00000000
Mo      18.61310734      38.76408326       1.59133887  T       0.00000000       0.00000000       0.00000000
Mo      18.56308755      41.92914763       1.59133887  T       0.00000000       0.00000000       0.00000000
Mo      16.93797721      43.50763260       0.00000000  T       0.00000000       0.00000000       0.00000000
Mo      18.51099463      45.09674980       1.59133887  T       0.00000000       0.00000000       0.00000000
Mo      16.88670378      46.67756594       0.00000000  T       0.00000000       0.00000000       0.00000000
Mo      18.45732509      48.26735996       1.59133887  T       0.00000000       0.00000000       0.00000000
Mo      16.83423731      49.85051585       0.00000000  T       0.00000000       0.00000000       0.00000000
Mo      18.40255374      51.44133394       1.59133887  T       0.00000000       0.00000000       0.00000000
Mo      16.78098589      53.02673894       0.00000000  T       0.00000000       0.00000000       0.00000000
Mo      18.34712126      54.61891083       1.59133887  T       0.00000000       0.00000000       0.00000000
Mo      16.72732794      56.20639274       0.00000000  T       0.00000000       0.00000000       0.00000000
Mo      21.47330246      57.80590181       1.59133887  T       0.00000000       0.00000000       0.00000000
Mo      19.85352187      59.39512583       0.00000000  T       0.00000000       0.00000000       0.00000000
Mo      21.41341485      60.99135416       1.59133887  T       0.00000000       0.00000000       0.00000000
Mo      19.79612715      62.58236010       0.00000000  T       0.00000000       0.00000000       0.00000000
Mo      21.35419281      64.18105591       1.59133887  T       0.00000000       0.00000000       0.00000000
Mo      19.73954884      65.77344334       0.00000000  T       0.00000000       0.00000000       0.00000000
Mo      21.29614991      67.37475261       1.59133887  T       0.00000000       0.00000000       0.00000000
Mo      19.68425699      68.96809594       0.00000000  T       0.00000000       0.00000000       0.00000000
Mo      21.23983407      70.57204476       1.59133887  T       0.00000000       0.00000000       0.00000000
Mo      19.63075098      72.16591355       0.00000000  T       0.00000000       0.00000000       0.00000000
Mo      21.18581936      73.77239041       1.59133887  T       0.00000000       0.00000000       0.00000000
Mo      21.91349051      32.45827815       1.59133887  T       0.00000000       0.00000000       0.00000000
Mo      21.86757797      35.61787253       1.59133887  T       0.00000000       0.00000000       0.00000000
Mo      20.23983410      37.18989352       0.00000000  T       0.00000000       0.00000000       0.00000000
Mo      21.81792705      38.77860527       1.59133887  T       0.00000000       0.00000000       0.00000000
Mo      20.18977893      40.35274664       0.00000000  T       0.00000000       0.00000000       0.00000000
Mo      21.76504703      41.94129709       1.59133887  T       0.00000000       0.00000000       0.00000000
Mo      20.13711768      43.51791343       0.00000000  T       0.00000000       0.00000000       0.00000000
Mo      21.70953658      45.10670408       1.59133887  T       0.00000000       0.00000000       0.00000000
Mo      20.08240543      46.68599808       0.00000000  T       0.00000000       0.00000000       0.00000000
Mo      21.65202229      48.27546205       1.59133887  T       0.00000000       0.00000000       0.00000000
Mo      20.02619192      49.85748190       0.00000000  T       0.00000000       0.00000000       0.00000000
Mo      21.59311092      51.44805589       1.59133887  T       0.00000000       0.00000000       0.00000000
Mo      19.96899415      53.03271096       0.00000000  T       0.00000000       0.00000000       0.00000000
Mo      21.53336495      54.62481161       1.59133887  T       0.00000000       0.00000000       0.00000000
Mo      19.91128889      56.21189730       0.00000000  T       0.00000000       0.00000000       0.00000000
Mo      24.65501977      57.81205347       1.59133887  T       0.00000000       0.00000000       0.00000000
Mo      23.03296168      59.40117197       0.00000000  T       0.00000000       0.00000000       0.00000000
Mo      24.59005603      60.99800741       1.59133887  T       0.00000000       0.00000000       0.00000000
Mo      22.97094451      62.58918307       0.00000000  T       0.00000000       0.00000000       0.00000000
Mo      24.52594639      64.18894107       1.59133887  T       0.00000000       0.00000000       0.00000000
Mo      22.90996545      65.78165880       0.00000000  T       0.00000000       0.00000000       0.00000000
Mo      24.46335321      67.38450021       1.59133887  T       0.00000000       0.00000000       0.00000000
Mo      22.85062602      68.97821505       0.00000000  T       0.00000000       0.00000000       0.00000000
Mo      24.40298513      70.58412966       1.59133887  T       0.00000000       0.00000000       0.00000000
Mo      22.79356458      72.17829816       0.00000000  T       0.00000000       0.00000000       0.00000000
Mo      24.34557682      73.78708225       1.59133887  T       0.00000000       0.00000000       0.00000000
Mo      22.73942911      75.38119886       0.00000000  T       0.00000000       0.00000000       0.00000000
Mo      24.29183388      76.99245526       1.59133887  T       0.00000000       0.00000000       0.00000000
Mo      22.68882458      78.58609072       0.00000000  T       0.00000000       0.00000000       0.00000000
Mo      24.24235538      80.19926076       1.59133887  T       0.00000000       0.00000000       0.00000000
Mo      25.16679660      29.32274744       1.59133887  T       0.00000000       0.00000000       0.00000000
Mo      23.54033020      30.88972205       0.00000000  T       0.00000000       0.00000000       0.00000000
Mo      25.12469284      32.48023735       1.59133887  T       0.00000000       0.00000000       0.00000000
Mo      23.49601110      34.04802362       0.00000000  T       0.00000000       0.00000000       0.00000000
Mo      25.07758950      35.63751814       1.59133887  T       0.00000000       0.00000000       0.00000000
Mo      23.44731098      37.20684911       0.00000000  T       0.00000000       0.00000000       0.00000000
Mo      25.02580625      38.79557410       1.59133887  T       0.00000000       0.00000000       0.00000000
Mo      23.39467988      40.36712477       0.00000000  T       0.00000000       0.00000000       0.00000000
Mo      24.96990143      41.95546188       1.59133887  T       0.00000000       0.00000000       0.00000000
Mo      23.33872599      43.52976505       0.00000000  T       0.00000000       0.00000000       0.00000000
Mo      24.91060000      45.11819719       1.59133887  T       0.00000000       0.00000000       0.00000000
Mo      23.28014178      46.69558743       0.00000000  T       0.00000000       0.00000000       0.00000000
Mo      24.84870026      48.28465680       1.59133887  T       0.00000000       0.00000000       0.00000000
Mo      23.21963205      49.86525318       0.00000000  T       0.00000000       0.00000000       0.00000000
Mo      24.78166549      51.45640340       1.59133887  F       0.00053485       0.00018409       0.00000000
Mo      23.15786455      53.03924019       0.00000000  T       0.00000000       0.00000000       0.00000000
Mo      24.71967134      54.63099696       1.59133887  F       0.00092193       0.00000737      -0.00000000
Mo      23.09545187      56.21784091       0.00000000  T       0.00000000       0.00000000       0.00000000
Mo      27.83382451      57.82165832       1.59133887  F       0.00081546      -0.00005576       0.00000000
Mo      26.21181435      59.40776428       0.00000000  T       0.00000000       0.00000000       0.00000000
Mo      27.76303042      61.00793753       1.59133887  F       0.00116412      -0.00040567      -0.00000000
Mo      26.14437271      62.59676740       0.00000000  T       0.00000000       0.00000000       0.00000000
Mo      27.69330731      64.19963756       1.59133887  F       0.00154879      -0.00069216       0.00000000
Mo      26.07827920      65.79100551       0.00000000  T       0.00000000       0.00000000       0.00000000
Mo      27.62785165      67.39579633       1.59133887  T       0.00000000       0.00000000       0.00000000
Mo      26.01432016      68.98993661       0.00000000  T       0.00000000       0.00000000       0.00000000
Mo      27.56292340      70.59832746       1.59133887  T       0.00000000       0.00000000       0.00000000
Mo      25.95332602      72.19278383       0.00000000  T       0.00000000       0.00000000       0.00000000
Mo      27.50187873      73.80441561       1.59133887  T       0.00000000       0.00000000       0.00000000
Mo      25.89611751      75.39856743       0.00000000  T       0.00000000       0.00000000       0.00000000
Mo      27.44558437      77.01282196       1.59133887  T       0.00000000       0.00000000       0.00000000
Mo      25.84341593      78.60617943       0.00000000  T       0.00000000       0.00000000       0.00000000
Mo      27.39469997      80.22225184       1.59133887  T       0.00000000       0.00000000       0.00000000
Mo      25.79574653      81.81449495       0.00000000  T       0.00000000       0.00000000       0.00000000
Mo      27.34958249      83.43150620       1.59133887  T       0.00000000       0.00000000       0.00000000
Mo      28.41638722      26.19193747       1.59133887  T       0.00000000       0.00000000       0.00000000
Mo      26.79233900      27.75698257       0.00000000  T       0.00000000       0.00000000       0.00000000
Mo      28.38052525      29.34969330       1.59133887  T       0.00000000       0.00000000       0.00000000
Mo      26.75307447      30.91426296       0.00000000  T       0.00000000       0.00000000       0.00000000
Mo      28.33878060      32.50561765       1.59133887  T       0.00000000       0.00000000       0.00000000
Mo      26.70828443      34.07052545       0.00000000  T       0.00000000       0.00000000       0.00000000
Mo      28.29097620      35.66055169       1.59133887  T       0.00000000       0.00000000       0.00000000
Mo      26.65807677      37.22673391       0.00000000  T       0.00000000       0.00000000       0.00000000
Mo      28.23729302      38.81564182       1.59133887  T       0.00000000       0.00000000       0.00000000
Mo      26.60287356      40.38403643       0.00000000  T       0.00000000       0.00000000       0.00000000
Mo      28.17405839      41.97287795       1.59133887  F       0.00029831       0.00014148       0.00000000
Mo      26.54336645      43.54363838       0.00000000  T       0.00000000       0.00000000       0.00000000
Mo      28.10991612      45.13444012       1.59133887  F       0.00074424       0.00006971       0.00000000
Mo      26.47650528      46.70818842      -0.00000000  F       0.00064168       0.00006104      -0.00000000
Mo      28.04218602      48.29855767       1.59133887  F       0.00100112       0.00054362       0.00000000
Mo      26.41123434      49.87667903       0.00000000  F       0.00092435       0.00007889      -0.00000000
Mo      27.97331613      51.46751889       1.59133887  F       0.00077579       0.00009903       0.00000000
Mo      26.34482548      53.04813378      -0.00000000  F       0.00074915       0.00032087       0.00000000
Mo      27.90364532      54.64192390       1.59133887  F       0.00080550      -0.00025902      -0.00000000
Mo      26.27677131      56.22590689       0.00000000  F       0.00116367       0.00020072      -0.00000000
Mo      31.01258759      57.83342193       1.59133887  F       0.00047179      -0.00029769       0.00000000
Mo      29.38690701      59.42021871       0.00000000  F       0.00048681      -0.00061137      -0.00000000
Mo      30.93609030      61.02032715       1.59133887  F       0.00021339      -0.00039677      -0.00000000
Mo      29.31390634      62.60948764      -0.00000000  F       0.00051079      -0.00045145       0.00000000
Mo      30.86078754      64.21322643       1.59133887  F       0.00063560      -0.00029909      -0.00000000
Mo      29.24295795      65.80401678      -0.00000000  F       0.00086970      -0.00015027       0.00000000
Mo      30.78805118      67.41238995       1.59133887  F       0.00042151      -0.00032411       0.00000000
Mo      29.17318350      69.00505431      -0.00000000  F       0.00163479      -0.00012063      -0.00000000
Mo      30.71848998      70.61641242       1.59133887  F       0.00085329       0.00041599       0.00000000
Mo      29.10936294      72.20999471       0.00000000  T       0.00000000       0.00000000       0.00000000
Mo      30.65404136      73.82515774       1.59133887  T       0.00000000       0.00000000       0.00000000
Mo      29.04904916      75.41915822       0.00000000  T       0.00000000       0.00000000       0.00000000
Mo      30.59545686      77.03696895       1.59133887  T       0.00000000       0.00000000       0.00000000
Mo      28.99454978      78.62975649       0.00000000  T       0.00000000       0.00000000       0.00000000
Mo      30.54376105      80.24907063       1.59133887  T       0.00000000       0.00000000       0.00000000
Mo      28.94634672      81.84037552       0.00000000  T       0.00000000       0.00000000       0.00000000
Mo      30.49911655      83.46005728       1.59133887  T       0.00000000       0.00000000       0.00000000
Mo      28.90452063      85.04984817       0.00000000  T       0.00000000       0.00000000       0.00000000
Mo      30.46123414      86.66893156       1.59133887  T       0.00000000       0.00000000       0.00000000
Mo      31.65795322      23.06167213       1.59133887  T       0.00000000       0.00000000       0.00000000
Mo      30.03840633      24.62703681       0.00000000  T       0.00000000       0.00000000       0.00000000
Mo      31.63002000      26.22244026       1.59133887  T       0.00000000       0.00000000       0.00000000
Mo      30.00638243      27.78597356       0.00000000  T       0.00000000       0.00000000       0.00000000
Mo      31.59622605      29.38009290       1.59133887  T       0.00000000       0.00000000       0.00000000
Mo      29.96835290      30.94235023       0.00000000  T       0.00000000       0.00000000       0.00000000
Mo      31.55575822      32.53493419       1.59133887  T       0.00000000       0.00000000       0.00000000
Mo      29.92381552      34.09677931       0.00000000  T       0.00000000       0.00000000       0.00000000
Mo      31.50805602      35.68770878       1.59133887  T       0.00000000       0.00000000       0.00000000
Mo      29.87261042      37.25027615       0.00000000  T       0.00000000       0.00000000       0.00000000
Mo      31.44706043      38.83979435       1.59133887  F       0.00066459       0.00033728      -0.00000000
Mo      29.80982060      40.40504355      -0.00000000  F       0.00090789       0.00032738       0.00000000
Mo      31.38167613      41.99322947       1.59133887  F       0.00095807       0.00062085      -0.00000000
Mo      29.74486470      43.56222716       0.00000000  F       0.00084605       0.00031243      -0.00000000
Mo      31.31234794      45.15023047       1.59133887  F       0.00054756       0.00099716       0.00000000
Mo      29.67580257      46.72318830       0.00000000  F       0.00070113       0.00048446      -0.00000000
Mo      31.23968617      48.31227070       1.59133887  F       0.00071366       0.00019293      -0.00000000
Mo      29.60474592      49.88873791       0.00000000  F       0.00116157       0.00009794      -0.00000000
Mo      31.16505745      51.47964003       1.59133887  F       0.00039372      -0.00010555      -0.00000000
Mo      29.53270397      53.05989671       0.00000000  F       0.00054393       0.00015995      -0.00000000
Mo      31.08920240      54.65319024       1.59133887  F       0.00020851      -0.00031092      -0.00000000
Mo      29.45982903      56.23670559      -0.00000000  F       0.00073695      -0.00005685       0.00000000
Mo      34.19120387      57.84390310       1.59133887  F       0.00012410      -0.00035575       0.00000000
Mo      32.56193703      59.43166693       0.00000000  F      -0.00004729      -0.00045839      -0.00000000
Mo      34.10733016      61.03210231       1.59133887  F      -0.00015154      -0.00027820      -0.00000000
Mo      32.48241550      62.62260932      -0.00000000  F       0.00033663      -0.00036886       0.00000000
Mo      34.02474076      64.22796600       1.59133887  F       0.00017322       0.00003004      -0.00000000
Mo      32.40468532      65.82036287       0.00000000  F       0.00043226      -0.00038172       0.00000000
Mo      33.94516854      67.43088926       1.59133887  F       0.00014005      -0.00020612       0.00000000
Mo      32.33036457      69.02388861      -0.00000000  F       0.00044711      -0.00012310       0.00000000
Mo      33.87025724      70.63954595       1.59133887  F       0.00024211      -0.00036935      -0.00000000
Mo      32.26114563      72.23220869       0.00000000  F      -0.00017402       0.00029138       0.00000000
Mo      33.80196709      73.85202258       1.59133887  F      -0.00028128      -0.00057495      -0.00000000
Mo      32.19715845      75.44455475      -0.00000000  F       0.00122977      -0.00079407       0.00000000
Mo      33.74141174      77.06621809       1.59133887  F       0.00035804      -0.00001515       0.00000000
Mo      32.14194656      78.65755453       0.00000000  T       0.00000000       0.00000000       0.00000000
Mo      33.68954999      80.28031910       1.59133887  T       0.00000000       0.00000000       0.00000000
Mo      32.09410185      81.87022088       0.00000000  T       0.00000000       0.00000000       0.00000000
Mo      33.64650732      83.49243249       1.59133887  T       0.00000000       0.00000000       0.00000000
Mo      32.05379989      85.08062293       0.00000000  T       0.00000000       0.00000000       0.00000000
Mo      33.61112404      86.70127442       1.59133887  T       0.00000000       0.00000000       0.00000000
Mo      32.02033919      88.28807115       0.00000000  T       0.00000000       0.00000000       0.00000000
Mo      33.58232326      89.90655684       1.59133887  T       0.00000000       0.00000000       0.00000000
Mo      34.88856371      19.92731112       1.59133887  T       0.00000000       0.00000000       0.00000000
Mo      33.27472149      21.49526272       0.00000000  T       0.00000000       0.00000000       0.00000000
Mo      34.86873708      23.09314111       1.59133887  T       0.00000000       0.00000000       0.00000000
Mo      33.25092138      24.65838675       0.00000000  T       0.00000000       0.00000000       0.00000000
Mo      34.84405245      26.25547086       1.59133887  T       0.00000000       0.00000000       0.00000000
Mo      33.22166160      27.81807544       0.00000000  T       0.00000000       0.00000000       0.00000000
Mo      34.81333570      29.41397037       1.59133887  T       0.00000000       0.00000000       0.00000000
Mo      33.18589119      30.97429803       0.00000000  T       0.00000000       0.00000000       0.00000000
Mo      34.77162844      32.56531886       1.59133887  F       0.00085444       0.00000150      -0.00000000
Mo      33.13863431      34.12487493      -0.00000000  F       0.00114182       0.00026973       0.00000000
Mo      34.72202560      35.71520587       1.59133887  F       0.00036032       0.00105448      -0.00000000
Mo      33.08530303      37.27678145      -0.00000000  F       0.00043563       0.00038202       0.00000000
Mo      34.66186032      38.86476178       1.59133887  F       0.00057108       0.00087170       0.00000000
Mo      33.02106767      40.42751934      -0.00000000  F       0.00120118       0.00070123       0.00000000
Mo      34.59359098      42.01482597       1.59133887  F       0.00048170      -0.00003956      -0.00000000
Mo      32.95169466      43.58080795      -0.00000000  F       0.00068982       0.00048033       0.00000000
Mo      34.51932769      45.16805347       1.59133887  F       0.00024750       0.00032867       0.00000000
Mo      32.87775422      46.73845551      -0.00000000  F       0.00097068       0.00028065       0.00000000
Mo      34.44047757      48.32649245       1.59133887  F       0.00040531      -0.00007783       0.00000000
Mo      32.80086748      49.90162128      -0.00000000  F       0.00032034      -0.00012311       0.00000000
Mo      34.35894281      51.49138075       1.59133887  F       0.00031917      -0.00002222       0.00000000
Mo      32.72210402      53.07111290      -0.00000000  F       0.00008547       0.00000742       0.00000000
Mo      34.27550999      54.66365632       1.59133887  F       0.00009790      -0.00006261      -0.00000000
Mo      32.64214196      56.24774507       0.00000000  F       0.00020293      -0.00026427       0.00000000
Mo      37.36934943      57.85367916       1.59133887  F      -0.00006369       0.00033800      -0.00000000
Mo      35.73606004      59.44217851      -0.00000000  F       0.00009472       0.00020346      -0.00000000
Mo      37.27598460      61.04371490       1.59133887  F      -0.00000725       0.00045021       0.00000000
Mo      35.64836226      62.63569732       0.00000000  F      -0.00000446      -0.00009947      -0.00000000
Mo      37.18463661      64.24339957       1.59133887  F      -0.00014595       0.00019624       0.00000000
Mo      35.56305012      65.83733469       0.00000000  F       0.00010064      -0.00024705      -0.00000000
Mo      37.09728836      67.45140929       1.59133887  F      -0.00015387       0.00028982       0.00000000
Mo      35.48217141      69.04586932       0.00000000  F       0.00062232       0.00009065      -0.00000000
Mo      37.01643840      70.66577686       1.59133887  F       0.00007063       0.00021257      -0.00000000
Mo      35.40780844      72.25947760      -0.00000000  F       0.00065310      -0.00040293       0.00000000
Mo      36.94463760      73.88349359       1.59133887  F       0.00042313      -0.00066133      -0.00000000
Mo      35.34230420      75.47494423      -0.00000000  F       0.00038188      -0.00043483       0.00000000
Mo      36.88371788      77.10088583       1.59133887  F       0.00030802      -0.00043389      -0.00000000
Mo      35.28610922      78.69063650       0.00000000  F       0.00005585       0.00040899      -0.00000000
Mo      36.83323268      80.31650117       1.59133887  F      -0.00051540       0.00050765       0.00000000
Mo      35.23938252      81.90436838       0.00000000  T       0.00000000       0.00000000       0.00000000
Mo      36.79248622      83.52859360       1.59133887  T       0.00000000       0.00000000       0.00000000
Mo      35.20184370      85.11476877       0.00000000  T       0.00000000       0.00000000       0.00000000
Mo      36.76078473      86.73624875       1.59133887  T       0.00000000       0.00000000       0.00000000
Mo      35.17165970      88.32118067       0.00000000  T       0.00000000       0.00000000       0.00000000
Mo      36.73575450      89.93957902       1.59133887  T       0.00000000       0.00000000       0.00000000
Mo      35.14749371      91.52373202       0.00000000  T       0.00000000       0.00000000       0.00000000
Mo      36.71595971      93.13905918       1.59133887  T       0.00000000       0.00000000       0.00000000
Mo      38.09467756      19.95695684       1.59133887  T       0.00000000       0.00000000       0.00000000
Mo      36.48331196      21.52613645       0.00000000  T       0.00000000       0.00000000       0.00000000
Mo      38.07833706      23.12550217       1.59133887  T       0.00000000       0.00000000       0.00000000
Mo      36.46299789      24.69149610       0.00000000  T       0.00000000       0.00000000       0.00000000
Mo      38.05753778      26.29039228       1.59133887  T       0.00000000       0.00000000       0.00000000
Mo      36.43737190      27.85297503       0.00000000  T       0.00000000       0.00000000       0.00000000
Mo      38.03091069      29.45096034       1.59133887  T       0.00000000       0.00000000       0.00000000
Mo      36.40197489      31.00618658      -0.00000000  F       0.00056972       0.00058013      -0.00000000
Mo      37.99079432      32.60019860       1.59133887  F       0.00138050       0.00024912       0.00000000
Mo      36.35724381      34.15662580      -0.00000000  F       0.00097247       0.00108791       0.00000000
Mo      37.94166308      35.74712144       1.59133887  F       0.00057172       0.00074033       0.00000000
Mo      36.30208146      37.30430993      -0.00000000  F       0.00079058       0.00099808       0.00000000
Mo      37.88147202      38.89283136       1.59133887  F       0.00085909       0.00071079       0.00000000
Mo      36.23730696      40.45215810       0.00000000  F       0.00069509       0.00041023      -0.00000000
Mo      37.81104572      42.03892694       1.59133887  F       0.00014541       0.00010357       0.00000000
Mo      36.16392856      43.60139184       0.00000000  F       0.00023014       0.00050723      -0.00000000
Mo      37.73148249      45.18771038       1.59133887  F       0.00014366       0.00009129       0.00000000
Mo      36.08413934      46.75502956      -0.00000000  F       0.00002749      -0.00018934      -0.00000000
Mo      37.64561954      48.34182235       1.59133887  F       0.00012099       0.00004556       0.00000000
Mo      35.99998142      49.91466299       0.00000000  F       0.00029802       0.00010638      -0.00000000
Mo      37.55569663      51.50327714       1.59133887  F      -0.00017074       0.00018905      -0.00000000
Mo      35.91319763      53.08189133       0.00000000  F       0.00013872       0.00005364      -0.00000000
Mo      37.46310388      54.67363476       1.59133887  F      -0.00024204       0.00009784      -0.00000000
Mo      35.82476659      56.25760279       0.00000000  F       0.00009811       0.00001736      -0.00000000
Mo      40.54658226      57.86404988       1.59133887  F      -0.00039520       0.00017562       0.00000000
Mo      38.90848318      59.45295635       0.00000000  F      -0.00034348       0.00023945       0.00000000
Mo      40.44139842      61.05658985       1.59133887  F      -0.00080245       0.00027344      -0.00000000
Mo      38.81050064      62.64964318      -0.00000000  F      -0.00075409       0.00021825       0.00000000
Mo      40.33900094      64.26120311       1.59133887  F      -0.00060679       0.00066222      -0.00000000
Mo      38.71598854      65.85639263       0.00000000  F      -0.00048821       0.00071306      -0.00000000
Mo      40.24247704      67.47598483       1.59133887  F      -0.00072336       0.00065808       0.00000000
Mo      38.62770496      69.07123741       0.00000000  F      -0.00006444       0.00065508       0.00000000
Mo      40.15565150      70.69712637       1.59133887  F      -0.00054404       0.00106659      -0.00000000
Mo      38.54888389      72.29081114       0.00000000  F       0.00066614      -0.00022531       0.00000000
Mo      40.08175379      73.92017569       1.59133887  F       0.00049962       0.00041867      -0.00000000
Mo      38.48196937      75.51109320       0.00000000  F       0.00091310      -0.00069323       0.00000000
Mo      40.02180432      77.14111262       1.59133887  F       0.00091031      -0.00091062      -0.00000000
Mo      38.42738206      78.72867139      -0.00000000  F       0.00058844      -0.00036451       0.00000000
Mo      39.97502413      80.35694350       1.59133887  F       0.00040718      -0.00066339      -0.00000000
Mo      38.38379790      81.94259144       0.00000000  F      -0.00062902       0.00059559       0.00000000
Mo      39.93885220      83.56764618       1.59133887  F      -0.00060755       0.00039065      -0.00000000
Mo      38.34966396      85.15182586       0.00000000  T       0.00000000       0.00000000       0.00000000
Mo      39.91136417      86.77301302       1.59133887  T       0.00000000       0.00000000       0.00000000
Mo      38.32372476      88.35598016       0.00000000  T       0.00000000       0.00000000       0.00000000
Mo      39.89075517      89.97326633       1.59133887  T       0.00000000       0.00000000       0.00000000
Mo      38.30351222      91.55585853       0.00000000  T       0.00000000       0.00000000       0.00000000
Mo      39.87481777      93.16960533       1.59133887  T       0.00000000       0.00000000       0.00000000
Mo      38.28764839      94.75215828       0.00000000  T       0.00000000       0.00000000       0.00000000
Mo      39.86234535      96.36281416       1.59133887  T       0.00000000       0.00000000       0.00000000
Mo      41.30861632      16.81122622       1.59133887  T       0.00000000       0.00000000       0.00000000
Mo      39.70301703      18.38535221       0.00000000  T       0.00000000       0.00000000       0.00000000
Mo      41.29863536      19.98582454       1.59133887  T       0.00000000       0.00000000       0.00000000
Mo      39.69013537      21.55703007       0.00000000  T       0.00000000       0.00000000       0.00000000