479
Lattice="81.25022387845982 0.0 0.0 0.0 84.43770953030304 0.0 0.0 0.0 2.8726292138692044" Properties=species:S:1:pos:R:3:fix_mask:L:1:forces:R:3 energy=-4743.1012614396195 pbc="T T T"
Nb      13.40345043      29.69933453      -0.27808878  T       0.00000000       0.00000000       0.00000000
Nb      13.42979955      34.39328956      -0.33544389  T       0.00000000       0.00000000       0.00000000
Nb      12.10286490      36.74189883       0.58164713  T       0.00000000       0.00000000       0.00000000
Nb      10.78300139      39.09008463      -1.37712148  T       0.00000000       0.00000000       0.00000000
Nb      13.48696121      39.08981892      -0.41423768  T       0.00000000       0.00000000       0.00000000
Nb      12.17385781      41.43691815       0.49462016  T       0.00000000       0.00000000       0.00000000
Nb      10.85934951      43.78213287       1.40611469  T       0.00000000       0.00000000       0.00000000
Nb      13.57012062      43.78205749       2.36080770  T       0.00000000       0.00000000       0.00000000
Nb      12.25177658      46.12564118       3.27509487  T       0.00000000       0.00000000       0.00000000
Nb      13.63881917      48.46803146       2.27349490  T       0.00000000       0.00000000       0.00000000
Nb      12.30305061      50.81127002       3.20192124  T       0.00000000       0.00000000       0.00000000
Nb      13.67423525      53.15467023       2.20955325  T       0.00000000       0.00000000       0.00000000
Nb      21.54677467      20.35720204      -0.12443982  T       0.00000000       0.00000000       0.00000000
Nb      20.17864355      22.68415697       0.79452335  T       0.00000000       0.00000000       0.00000000
Nb      18.81576271      25.01759803      -1.15588558  T       0.00000000       0.00000000       0.00000000
Nb      21.52924119      25.02487947      -0.17545640  T       0.00000000       0.00000000       0.00000000
Nb      16.10506623      25.01328724       0.74051113  T       0.00000000       0.00000000       0.00000000
Nb      14.75134878      27.35478503      -1.20494218  T       0.00000000       0.00000000       0.00000000
Nb      17.45879467      27.35644290      -0.23164529  T       0.00000000       0.00000000       0.00000000
Nb      20.16800904      27.35965652       0.74462343  T       0.00000000       0.00000000       0.00000000
Nb      18.81407781      29.70020794      -1.20631945  T       0.00000000       0.00000000       0.00000000
Nb      21.52139114      29.70221346      -0.23003934  T       0.00000000       0.00000000       0.00000000
Nb      16.10831336      29.69944020       0.69302044  T       0.00000000       0.00000000       0.00000000
Nb      14.76504951      32.04542346      -1.25616776  T       0.00000000       0.00000000       0.00000000
Nb      17.46827405      32.04495675      -0.28514989  T       0.00000000       0.00000000       0.00000000
Nb      20.17203032      32.04487064       0.68809268  T       0.00000000       0.00000000       0.00000000
Nb      18.83317367      34.39158365      -1.26847127  T       0.00000000       0.00000000       0.00000000
Nb      21.53467557      34.39079944      -0.29543238  T       0.00000000       0.00000000       0.00000000
Nb      16.13162901      34.39245153       0.63344804  T       0.00000000       0.00000000       0.00000000
Nb      14.80485391      36.74124333      -1.32466924  T       0.00000000       0.00000000       0.00000000
Nb      17.50604240      36.74044897      -0.35683997  T       0.00000000       0.00000000       0.00000000
Nb      20.20636465      36.73949343       0.61291345  T       0.00000000       0.00000000       0.00000000
Nb      18.89232044      39.08902491      -1.35770716  T       0.00000000       0.00000000       0.00000000
Nb      21.58913664      39.09370749      -0.38363703  F      -0.00000003       0.00000029      -0.00000027
Nb      16.19013741      39.08947603       0.54967190  T       0.00000000       0.00000000       0.00000000
Nb      14.88083459      41.43689588      -1.41888132  T       0.00000000       0.00000000       0.00000000
Nb      17.58750967      41.43686579      -0.45940153  T       0.00000000       0.00000000       0.00000000
Nb      20.29377084      41.43682370       0.50056222  T       0.00000000       0.00000000       0.00000000
Nb      18.99331490      43.78182151       1.39558973  T       0.00000000       0.00000000       0.00000000
Nb      21.70648292      43.78615021       2.35119474  F       0.00000007       0.00000002       0.00000012
Nb      16.28138711      43.78195762       3.31491020  T       0.00000000       0.00000000       0.00000000
Nb      14.96566036      46.12520861       1.35298951  T       0.00000000       0.00000000       0.00000000
Nb      17.68048046      46.12465535       2.30215615  T       0.00000000       0.00000000       0.00000000
Nb      20.39644755      46.12393837       3.24955089  T       0.00000000       0.00000000       0.00000000
Nb      19.06997720      48.46627909       1.29345417  T       0.00000000       0.00000000       0.00000000
Nb      21.79875085      48.46467979       2.23245047  F      -0.00000021      -0.00000033       0.00000005
Nb      16.35405523      48.46722103       3.22068955  T       0.00000000       0.00000000       0.00000000
Nb      15.01749605      50.81048112       1.27566506  T       0.00000000       0.00000000       0.00000000
Nb      17.73210950      50.80969860       2.22033733  T       0.00000000       0.00000000       0.00000000
Nb      20.44664255      50.80904737       3.16284381  T       0.00000000       0.00000000       0.00000000
Nb      19.09970771      53.15434301       1.22370396  T       0.00000000       0.00000000       0.00000000
Nb      21.81102985      53.15521154       2.16324658  T       0.00000000       0.00000000       0.00000000
Nb      16.38725472      53.15430553       3.15398474  T       0.00000000       0.00000000       0.00000000
Nb      15.03815040      55.49991727       1.21950679  T       0.00000000       0.00000000       0.00000000
Nb      17.74876691      55.50076375       2.16181647  T       0.00000000       0.00000000       0.00000000
Nb      20.45791614      55.50279386       3.10134826  T       0.00000000       0.00000000       0.00000000
Nb      19.10291247      57.85112797       1.17000746  T       0.00000000       0.00000000       0.00000000
Nb      21.80779303      57.85677648       2.10562205  T       0.00000000       0.00000000       0.00000000
Nb      16.39549088      57.84798702       3.10309137  T       0.00000000       0.00000000       0.00000000
Nb      17.74688907      60.19991130       2.11360839  T       0.00000000       0.00000000       0.00000000
Nb      20.45040816      60.20676987       3.04936096  T       0.00000000       0.00000000       0.00000000
Nb      19.09285604      62.55678505       1.12230139  T       0.00000000       0.00000000       0.00000000
Nb      21.79193546      62.56901473       2.05304721  T       0.00000000       0.00000000       0.00000000
Nb      27.02058777      15.75406963      -0.95155742  T       0.00000000       0.00000000       0.00000000
Nb      29.74798180      15.78938303       0.05344023  T       0.00000000       0.00000000       0.00000000
Nb      22.91892902      18.03693193      -1.03987568  T       0.00000000       0.00000000       0.00000000
Nb      25.64562250      18.06488493      -0.04143173  T       0.00000000       0.00000000       0.00000000
Nb      28.37498019      18.10004566       0.96415658  T       0.00000000       0.00000000       0.00000000
Nb      26.99799619      20.40761619      -1.00296304  T       0.00000000       0.00000000       0.00000000
Nb      29.72941732      20.44613286       0.00738566  T       0.00000000       0.00000000       0.00000000
Nb      24.26997461      20.37793805       0.86810131  T       0.00000000       0.00000000       0.00000000
Nb      22.89700552      22.69741444      -1.09210154  T       0.00000000       0.00000000       0.00000000
Nb      25.62051477      22.71829035      -0.09782606  T       0.00000000       0.00000000       0.00000000
Nb      28.35000217      22.74981759       0.90730770  T       0.00000000       0.00000000       0.00000000
Nb      26.97044448      25.05786917      -1.06539013  T       0.00000000       0.00000000       0.00000000
Nb      29.70152279      25.09133077      -0.05615766  T       0.00000000       0.00000000       0.00000000
Nb      24.24685829      25.03717626       0.81120119  T       0.00000000       0.00000000       0.00000000
Nb      22.88000100      27.36561116      -1.14742854  T       0.00000000       0.00000000       0.00000000
Nb      25.59639171      27.37653255      -0.16023721  T       0.00000000       0.00000000       0.00000000
Nb      28.32372497      27.39055423       0.83311129  F      -0.00000015      -0.00000013       0.00000017
Nb      26.94463247      29.70297339      -1.14219799  F      -0.00000030       0.00000009       0.00000026
Nb      29.66953774      29.72094890      -0.14013665  F       0.00000002       0.00000029       0.00000001
Nb      24.23133808      29.70658100       0.75061698  T       0.00000000       0.00000000       0.00000000
Nb      22.87693434      32.04561930      -1.20827064  T       0.00000000       0.00000000       0.00000000
Nb      25.57391097      32.03578259      -0.23127846  F      -0.00000019      -0.00000018       0.00000036
Nb      28.28047763      32.03197855       0.75385207  F      -0.00000008      -0.00000017       0.00000020
Nb      26.91096279      34.37072700      -1.20954862  F      -0.00000012      -0.00000009       0.00000007
Nb      29.61120986      34.36694102      -0.22261526  F      -0.00000004      -0.00000006      -0.00000011
Nb      24.22182184      34.38557939       0.68582521  F       0.00000045      -0.00000012      -0.00000027
Nb      22.89444164      36.74180709      -1.27755925  F      -0.00000021      -0.00000020      -0.00000021
Nb      25.57804019      36.73008098      -0.30096932  F      -0.00000029       0.00000000      -0.00000014
Nb      28.26307203      36.71055080       0.67451400  F       0.00000010      -0.00000008       0.00000015
Nb      26.96670496      39.07416808      -1.31024684  F      -0.00000025       0.00000013       0.00000003
Nb      29.65574221      39.05253605      -0.33819406  F      -0.00000004       0.00000034      -0.00000008
Nb      24.27896190      39.09164538       0.59118111  F       0.00000006       0.00000003      -0.00000003
Nb      22.99451520      41.44363044      -1.40306239  F      -0.00000020      -0.00000002       0.00000000
Nb      25.69524223      41.43472302      -0.43682180  F      -0.00000021       0.00000002      -0.00000021
Nb      28.39538901      41.41279090       0.52688803  F       0.00000001       0.00000001      -0.00000002
Nb      27.13402893      43.76686292       1.39172214  F       0.00000022       0.00000033       0.00000010
Nb      29.84701404      43.74732302       2.34189196  F       0.00000011       0.00000046       0.00000027
Nb      24.41926907      43.78435343       3.30816260  F       0.00000022       0.00000015      -0.00000016
Nb      23.12158826      46.12539777       1.32257146  F       0.00000010       0.00000014       0.00000008
Nb      25.84670749      46.11329210       2.27122682  F       0.00000048       0.00000022      -0.00000000
Nb      28.56851628      46.09582768       3.21446479  F       0.00000015       0.00000034       0.00000019
Nb      27.25063369      48.44276136       1.24067959  F      -0.00000015      -0.00000002      -0.00000007
Nb      29.96364873      48.44184340       2.16432559  F       0.00000023      -0.00000014       0.00000003
Nb      24.52520053      48.45685989       3.17417413  F      -0.00000001       0.00000025       0.00000027
Nb      23.17779140      50.80238995       1.22702117  F       0.00000002       0.00000014      -0.00000005
Nb      25.89902707      50.79228344       2.16386709  F       0.00000024      -0.00000006       0.00000008
Nb      28.61058102      50.79143844       3.08758474  F      -0.00000017      -0.00000019       0.00000015
Nb      27.24002809      53.14616987       1.15435436  F      -0.00000002      -0.00000002      -0.00000014
Nb      29.93171156      53.16838103       2.05812758  F       0.00000024      -0.00000040      -0.00000013
Nb      24.53369843      53.14521408       3.10046525  F       0.00000007      -0.00000005      -0.00000012
Nb      23.16464312      55.50700633       1.16425572  T       0.00000000       0.00000000       0.00000000
Nb      25.87321290      55.50457024       2.09670731  F       0.00000019      -0.00000015      -0.00000021
Nb      28.56234910      55.52316264       3.00817587  F      -0.00000004       0.00000008      -0.00000001
Nb      27.20369337      57.88470257       1.08327982  T       0.00000000       0.00000000       0.00000000
Nb      29.88451231      57.91405310       1.98271129  F       0.00000010      -0.00000022       0.00000024
Nb      24.50874322      57.86683213       3.03534441  T       0.00000000       0.00000000       0.00000000
Nb      23.15021136      60.21809039       1.10691492  T       0.00000000       0.00000000       0.00000000
Nb      25.84472967      60.23671433       2.02888412  T       0.00000000       0.00000000       0.00000000
Nb      28.53253594      60.26640593       2.93936648  T       0.00000000       0.00000000       0.00000000
Nb      27.17540913      62.61628753       1.01765048  T       0.00000000       0.00000000       0.00000000
Nb      29.85987127      62.65499475       1.92121642  T       0.00000000       0.00000000       0.00000000
Nb      24.48640118      62.58794855       2.97647244  T       0.00000000       0.00000000       0.00000000
Nb      23.12862284      64.93849711       1.05296857  T       0.00000000       0.00000000       0.00000000
Nb      25.81879090      64.96545991       1.96973700  T       0.00000000       0.00000000       0.00000000
Nb      28.50541521      65.00083807       2.87822389  T       0.00000000       0.00000000       0.00000000
Nb      27.15100870      67.34663261       0.96268549  T       0.00000000       0.00000000       0.00000000
Nb      29.83906414      67.38338772       1.87086092  T       0.00000000       0.00000000       0.00000000
Nb      24.46256555      67.31407534       2.92271472  T       0.00000000       0.00000000       0.00000000
Nb      28.48630544      69.72609560       2.83218815  T       0.00000000       0.00000000       0.00000000
Nb      33.83609557      13.49843043       0.13372731  T       0.00000000       0.00000000       0.00000000
Nb      36.55270752      13.51780804       1.12894194  T       0.00000000       0.00000000       0.00000000
Nb      35.19280595      15.84987385      -0.81311888  T       0.00000000       0.00000000       0.00000000
Nb      37.90913000      15.86827993       0.18435568  T       0.00000000       0.00000000       0.00000000
Nb      32.47252296      15.82279661       1.05808873  T       0.00000000       0.00000000       0.00000000
Nb      31.10400919      18.13863225      -0.89891341  T       0.00000000       0.00000000       0.00000000
Nb      33.82940297      18.17431961       0.10982603  T       0.00000000       0.00000000       0.00000000
Nb      36.54967844      18.20169740       1.11440829  T       0.00000000       0.00000000       0.00000000
Nb      35.18660188      20.52666953      -0.83667044  T       0.00000000       0.00000000       0.00000000
Nb      37.90670375      20.55372170       0.17153817  T       0.00000000       0.00000000       0.00000000
Nb      32.46035912      20.48860169       1.02243689  T       0.00000000       0.00000000       0.00000000
Nb      31.08391348      22.79237297      -0.94918600  T       0.00000000       0.00000000       0.00000000
Nb      33.81711159      22.83949345       0.07259114  T       0.00000000       0.00000000       0.00000000
Nb      36.54788362      22.89143457       1.09772954  F      -0.00000026       0.00000019      -0.00000018
Nb      35.17800536      25.20119121      -0.86898962  F      -0.00000004       0.00000020       0.00000009
Nb      37.90111321      25.25836543       0.15886384  F      -0.00000003      -0.00000031      -0.00000011
Nb      32.44314619      25.14040449       0.96944195  F       0.00000036       0.00000021       0.00000020
Nb      31.05917754      27.42823043      -1.02078556  F      -0.00000022       0.00000051       0.00000012
Nb      33.79786468      27.49271137       0.01576597  F      -0.00000023      -0.00000002       0.00000025
Nb      36.52938583      27.56958709       1.05749300  F       0.00000001       0.00000009       0.00000006
Nb      35.14302786      29.85539792      -0.93895808  F      -0.00000021      -0.00000030       0.00000004
Nb      37.87829685      29.93742945       0.11520623  F      -0.00000018      -0.00000031       0.00000009
Nb      32.40476630      29.77359678       0.88766882  F      -0.00000018       0.00000000       0.00000040
Nb      31.00271895      32.05830885      -1.11100634  F      -0.00000017      -0.00000020       0.00000019
Nb      33.74060394      32.12555338      -0.07560553  F      -0.00000023      -0.00000004       0.00000011
Nb      36.48786746      32.21695861       0.98435574  F       0.00000031      -0.00000003       0.00000001
Nb      35.08028589      34.47524286      -1.03684874  F      -0.00000009      -0.00000031      -0.00000002
Nb      37.84632874      34.56238971       0.05064496  F      -0.00000016      -0.00000016      -0.00000000
Nb      32.33345979      34.39967877       0.78913439  F       0.00000018      -0.00000010      -0.00000012
Nb      30.96047075      36.70617815      -1.21086124  F       0.00000014       0.00000038      -0.00000000
Nb      33.68233650      36.73945337      -0.19369380  F      -0.00000003       0.00000014      -0.00000003
Nb      36.43965832      36.81359271       0.87529043  F       0.00000008      -0.00000069       0.00000048
Nb      35.07331014      39.08032297      -1.20849593  F      -0.00000033       0.00000008       0.00000042
Nb      37.82331096      39.13861564      -0.10082519  F       0.00000061      -0.00000037       0.00000000
Nb      32.35287129      39.04810461       0.64557039  F      -0.00000003       0.00000025      -0.00000001
Nb      31.09557801      41.39467725      -1.38348436  F      -0.00000005       0.00000024       0.00000023
Nb      33.79707754      41.39946824      -0.41950097  F       0.00000014      -0.00000002      -0.00000011
Nb      36.50067591      41.43304717       0.56246340  F      -0.00000003       0.00000037       0.00000028
Nb      35.24735205      43.77907773       1.31506758  F       0.00000043      -0.00000034       0.00000012
Nb      37.90983170      43.85568843       2.16086069  F       0.00000030      -0.00000002       0.00000039
Nb      32.55370454      43.74654211       3.27838593  F      -0.00000019       0.00000011       0.00000017
Nb      31.27995305      46.09447129       1.26793886  F       0.00000016      -0.00000016       0.00000003
Nb      33.97316801      46.12720660       2.16386550  F       0.00000033       0.00000004       0.00000022
Nb      36.64598386      46.19821541       3.00983558  F       0.00000016       0.00000035       0.00000025
Nb      35.32898805      48.54500786       1.04933933  F       0.00000066      -0.00000002       0.00000018
Nb      37.98446540      48.64317181       1.87162522  F      -0.00000022      -0.00000005       0.00000029
Nb      32.65682472      48.47383858       3.06091768  F       0.00000020       0.00000008      -0.00000017
Nb      31.30344938      50.82002028       1.11452956  F       0.00000001       0.00000018      -0.00000021
Nb      33.97801017      50.88644915       1.98719041  F       0.00000045      -0.00000054      -0.00000009
Nb      36.64055819      50.98317618       2.83856604  F       0.00000017      -0.00000023      -0.00000006
Nb      35.27881618      53.31030469       0.92931960  F       0.00000019      -0.00000005       0.00000005
Nb      37.95268327      53.40254462       1.79214843  F      -0.00000031       0.00000002       0.00000015
Nb      32.60870865      53.22440226       2.93794900  F      -0.00000006       0.00000009      -0.00000001
Nb      31.24001545      55.56563150       1.02297600  F       0.00000009      -0.00000012       0.00000024
Nb      33.91360314      55.63544163       1.89407002  F       0.00000002       0.00000011       0.00000006
Nb      36.59332497      55.71831343       2.76479381  F      -0.00000033       0.00000014       0.00000013
Nb      35.23611847      58.03495480       0.86511498  F       0.00000005      -0.00000002      -0.00000032
Nb      37.92905265      58.09652243       1.75269203  F       0.00000008       0.00000028       0.00000018
Nb      32.55778939      57.96813593       2.86308474  F       0.00000016      -0.00000003       0.00000010
Nb      31.21439364      60.30909288       0.96431562  T       0.00000000       0.00000000       0.00000000
Nb      33.88905518      60.36210536       1.84310867  F      -0.00000015      -0.00000003       0.00000005
Nb      36.57575723      60.41299602       2.73170764  F       0.00000033      -0.00000014      -0.00000018
Nb      35.23226276      62.74108657       0.84354206  T       0.00000000       0.00000000       0.00000000
Nb      37.92758256      62.77085434       1.74716154  T       0.00000000       0.00000000       0.00000000
Nb      32.54377031      62.69972283       2.81831956  T       0.00000000       0.00000000       0.00000000
Nb      31.19157425      65.04121172       0.90877633  T       0.00000000       0.00000000       0.00000000
Nb      33.88121648      65.07958552       1.81209448  T       0.00000000       0.00000000       0.00000000
Nb      36.57643778      65.10939678       2.71979840  T       0.00000000       0.00000000       0.00000000
Nb      35.22511137      67.44823631       0.81741577  T       0.00000000       0.00000000       0.00000000
Nb      37.92482803      67.46816628       1.73304914  T       0.00000000       0.00000000       0.00000000
Nb      32.52980617      67.41901122       2.77879667  T       0.00000000       0.00000000       0.00000000
Nb      31.17807601      69.75923362       0.87143843  T       0.00000000       0.00000000       0.00000000
Nb      33.87359465      69.78754238       1.78580956  T       0.00000000       0.00000000       0.00000000
Nb      36.57302144      69.80838294       2.70390411  T       0.00000000       0.00000000       0.00000000
Nb      37.92320568      72.16273989       1.72365432  T       0.00000000       0.00000000       0.00000000
Nb      39.26667586      13.52942563      -0.75135968  T       0.00000000       0.00000000       0.00000000
Nb      41.97928234      13.53327537       0.23938577  T       0.00000000       0.00000000       0.00000000
Nb      44.69188882      13.52942563       1.23013121  T       0.00000000       0.00000000       0.00000000
Nb      43.33570580      15.87744790      -0.70015840  T       0.00000000       0.00000000       0.00000000
Nb      46.04943468      15.86827993       0.29441585  T       0.00000000       0.00000000       0.00000000
Nb      40.62285887      15.87744790       1.17892993  T       0.00000000       0.00000000       0.00000000
Nb      39.26563565      18.21833071      -0.75810226  T       0.00000000       0.00000000       0.00000000
Nb      41.97928234      18.22384719       0.23938577  T       0.00000000       0.00000000       0.00000000
Nb      44.69292903      18.21833071       1.23687379  T       0.00000000       0.00000000       0.00000000
Nb      43.33628115      20.56733159      -0.69614849  T       0.00000000       0.00000000       0.00000000
Nb      46.05186093      20.55372170       0.30723337  T       0.00000000       0.00000000       0.00000000
Nb      40.62228352      20.56733159       1.17492003  T       0.00000000       0.00000000       0.00000000
Nb      39.26411280      22.92377053      -0.76312325  F       0.00000015      -0.00000000      -0.00000006
Nb      41.97189864      22.93179065       0.24069322  F       0.00000015       0.00000040       0.00000003
Nb      44.68329899      22.91709489       1.24724529  F      -0.00000027       0.00000038       0.00000012
Nb      43.32203887      25.27808378      -0.68254157  F       0.00000017      -0.00000001       0.00000019
Nb      46.04249423      25.23720399       0.33974397  F       0.00000018      -0.00000035       0.00000040
Nb      40.61239652      25.28761613       1.17563060  F       0.00000004      -0.00000018      -0.00000034
Nb      39.25089509      27.62750268      -0.77836944  F      -0.00000017      -0.00000000       0.00000018
Nb      41.96778937      27.63765453       0.25377360  F      -0.00000028      -0.00000038      -0.00000016
Nb      44.69002182      27.59780249       1.28893045  F      -0.00000023       0.00000011       0.00000031
Nb      43.34450730      29.95455817      -0.64418181  F       0.00000036       0.00000036       0.00000018
Nb      46.08396205      29.88505732       0.41184601  F      -0.00000002       0.00000006      -0.00000008
Nb      40.61065166      29.97808507       1.17159486  F       0.00000003       0.00000009      -0.00000019
Nb      39.23884649      32.28698053      -0.80936634  F       0.00000017      -0.00000010      -0.00000034
Nb      41.99163914      32.29357135       0.27725106  F       0.00000007      -0.00000072      -0.00000007
Nb      44.74647288      32.23515315       1.35867833  F      -0.00000049       0.00000016       0.00000042
Nb      43.39498730      34.57090123      -0.57884771  F       0.00000012      -0.00000072       0.00000020
Nb      46.16661003      34.48976077       0.51264019  F       0.00000003      -0.00000020       0.00000014
Nb      40.61977831      34.60262295       1.17136051  F       0.00000019      -0.00000021       0.00000009
Nb      39.22572012      36.87900090      -0.85311407  F      -0.00000028      -0.00000047       0.00000034
Nb      42.02122333      36.88174157       0.33206346  F       0.00000041       0.00000065      -0.00000011
Nb      44.81021101      36.82093510       1.47971179  F       0.00000009       0.00000028      -0.00000013
Nb      43.42900723      39.14253425      -0.40476420  F      -0.00000023      -0.00000007       0.00000012
Nb      46.18216546      39.08512888       0.70629974  F      -0.00000021      -0.00000038       0.00000029
Nb      40.62492403      39.14708987       1.18011999  F       0.00000043       0.00000008       0.00000010
Nb      39.22859539      41.47961096      -1.20112452  F       0.00000013       0.00000021       0.00000035
Nb      42.02647345      41.48170982       0.71421407  F      -0.00000034       0.00000036       0.00000023
Nb      44.75686262      41.43831064       1.82519655  F      -0.00000020       0.00000074      -0.00000001
Nb      43.35137499      43.86219014       0.24894881  F      -0.00000013      -0.00000007       0.00000027
Nb      46.01335645      43.78620372       1.09100718  F       0.00000014      -0.00000013       0.00000001
Nb      40.62935402      43.90308498       2.64025974  F       0.00000010       0.00000018       0.00000011
Nb      39.30609770      46.28678578       0.88463527  F       0.00000027      -0.00000003       0.00000035
Nb      41.95627225      46.29044433       1.54054299  F       0.00000055      -0.00000003       0.00000005
Nb      44.61607102      46.20761881       2.28546155  F      -0.00000044      -0.00000006       0.00000016
Nb      43.27736303      48.65210420       0.56635884  F      -0.00000000       0.00000044      -0.00000002
Nb      45.92987836      48.56097269       1.38556309  F       0.00000024       0.00000029       0.00000036
Nb      40.63131946      48.69966445       2.65592848  F      -0.00000009       0.00000032      -0.00000037
Nb      39.30106281      51.07053520       0.80657448  F      -0.00000033       0.00000029       0.00000002
Nb      41.96360819      51.07685591       1.64153320  F      -0.00000006      -0.00000010      -0.00000007
Nb      44.62133008      51.00102072       2.47998909  F      -0.00000008       0.00000032       0.00000010
Nb      43.31648384      53.41872864       0.65721466  F       0.00000023      -0.00000009      -0.00000009
Nb      45.98634302      53.33932613       1.51804724  F      -0.00000011      -0.00000010       0.00000005
Nb      40.63530789      53.45035243       2.66131715  F       0.00000018      -0.00000025       0.00000048
Nb      39.28698321      55.78297974       0.77637101  F      -0.00000000       0.00000015       0.00000032
Nb      41.98837502      55.79290294       1.66954976  F       0.00000031      -0.00000007       0.00000033
Nb      44.68075705      55.74612443       2.55432058  F      -0.00000001      -0.00000011       0.00000017
Nb      43.34563920      58.11693583       0.68988375  F      -0.00000003       0.00000008       0.00000022
Nb      46.04042216      58.07225138       1.58122504  F      -0.00000012      -0.00000026       0.00000024
Nb      40.63695155      58.12830746       2.65687097  F       0.00000034       0.00000023       0.00000040
Nb      39.27775371      60.44782953       0.76354818  F       0.00000039       0.00000008       0.00000003
Nb      41.98765306      60.45746423       1.67685644  F       0.00000018       0.00000003       0.00000001
Nb      44.69332000      60.44081386       2.58521524  F       0.00000004       0.00000004       0.00000029
Nb      43.33045922      62.78584886       0.69504648  T       0.00000000       0.00000000       0.00000000
Nb      46.03098211      62.77085434       1.60423921  T       0.00000000       0.00000000       0.00000000
Nb      40.62810546      62.78584886       2.65635427  T       0.00000000       0.00000000       0.00000000
Nb      39.27654308      65.12754972       0.75992298  T       0.00000000       0.00000000       0.00000000
Nb      41.97928234      65.13356420       1.67570037  T       0.00000000       0.00000000       0.00000000
Nb      44.68202159      65.12754972       2.59147777  T       0.00000000       0.00000000       0.00000000