519
Lattice="92.6266093157392 0.0 0.0 0.0 80.21699673384649 0.0 0.0 0.0 2.7290376485615093" Properties=species:S:1:pos:R:3:fix_mask:L:1:forces:R:3 energy=-5522.422983425378 pbc="T T T"
Mo      20.54118582      28.22432516      -0.27352421  T       0.00000000       0.00000000       0.00000000
Mo      19.26003910      30.45204303       0.59965056  T       0.00000000       0.00000000       0.00000000
Mo      17.98078617      32.68032816      -1.25550439  T       0.00000000       0.00000000       0.00000000
Mo      20.55160600      32.68028303      -0.33608674  T       0.00000000       0.00000000       0.00000000
Mo      19.27410519      34.90878928       0.53573474  T       0.00000000       0.00000000       0.00000000
Mo      17.99752404      37.13733413      -1.31977786  T       0.00000000       0.00000000       0.00000000
Mo      20.56927956      37.13730408      -0.40587314  T       0.00000000       0.00000000       0.00000000
Mo      16.72102594      39.36573829      -0.44406658  T       0.00000000       0.00000000       0.00000000
Mo      19.29369398      39.36573637       0.46659501  T       0.00000000       0.00000000       0.00000000
Mo      18.01743335      41.59395485       1.34204856  T       0.00000000       0.00000000       0.00000000
Mo      20.59102898      41.59394630       2.24958391  T       0.00000000       0.00000000       0.00000000
Mo      16.73994651      43.82201961       2.22068367  T       0.00000000       0.00000000       0.00000000
Mo      19.31425177      43.82198146       3.12555470  T       0.00000000       0.00000000       0.00000000
Mo      18.03571326      46.04997652       1.27625005  T       0.00000000       0.00000000       0.00000000
Mo      20.61066622      46.04991255       2.17784035  T       0.00000000       0.00000000       0.00000000
Mo      19.33050316      48.27801581       3.05937324  T       0.00000000       0.00000000       0.00000000
Mo      20.62360846      50.50644771       2.11244074  T       0.00000000       0.00000000       0.00000000
Mo      19.34002290      52.73514341       2.99988662  T       0.00000000       0.00000000       0.00000000
Mo      20.62934987      54.96485108       2.05495244  T       0.00000000       0.00000000       0.00000000
Mo      25.68754679      19.32531139      -1.03653242  T       0.00000000       0.00000000       0.00000000
Mo      28.26361905      19.33046226      -0.09968773  T       0.00000000       0.00000000       0.00000000
Mo      24.39806838      21.54795398      -0.16302193  T       0.00000000       0.00000000       0.00000000
Mo      26.97295014      21.55166935       0.77153859  T       0.00000000       0.00000000       0.00000000
Mo      25.68381283      23.77438278      -1.08720868  T       0.00000000       0.00000000       0.00000000
Mo      28.25833211      23.77785617      -0.15154025  T       0.00000000       0.00000000       0.00000000
Mo      23.11026940      23.77202667       0.70994768  T       0.00000000       0.00000000       0.00000000
Mo      21.82457318      25.99754557      -1.14633940  T       0.00000000       0.00000000       0.00000000
Mo      24.39685756      25.99880435      -0.21739672  T       0.00000000       0.00000000       0.00000000
Mo      26.96980750      26.00078239       0.71497157  T       0.00000000       0.00000000       0.00000000
Mo      25.68412577      28.22572249      -1.14792099  T       0.00000000       0.00000000       0.00000000
Mo      28.25630144      28.22723521      -0.21532824  T       0.00000000       0.00000000       0.00000000
Mo      23.11251167      28.22483856       0.65231870  T       0.00000000       0.00000000       0.00000000
Mo      21.83086151      30.45215042      -1.20674005  T       0.00000000       0.00000000       0.00000000
Mo      24.40164323      30.45239501      -0.28167149  T       0.00000000       0.00000000       0.00000000
Mo      26.97251713      30.45289496       0.64653202  T       0.00000000       0.00000000       0.00000000
Mo      25.69254583      32.68029548      -1.22019051  T       0.00000000       0.00000000       0.00000000
Mo      28.25836920      32.67882951      -0.29464551  F      -0.00000026      -0.00000022       0.00000005
Mo      23.12219042      32.68026111       0.58517716  T       0.00000000       0.00000000       0.00000000
Mo      21.84508015      34.90872349      -1.27581064  T       0.00000000       0.00000000       0.00000000
Mo      24.41572832      34.90865004      -0.35668170  T       0.00000000       0.00000000       0.00000000
Mo      26.97998590      34.90701024       0.56379165  F      -0.00000014       0.00000006       0.00000000
Mo      25.71201216      37.13721503      -1.30416867  T       0.00000000       0.00000000       0.00000000
Mo      28.27751114      37.13507935      -0.38717608  F      -0.00000000      -0.00000001       0.00000016
Mo      23.14079990      37.13726546       0.50890832  T       0.00000000       0.00000000       0.00000000
Mo      21.86630323      39.36573384      -1.35158354  T       0.00000000       0.00000000       0.00000000
Mo      24.43883405      39.36573042      -0.44046055  T       0.00000000       0.00000000       0.00000000
Mo      27.00614682      39.36495087       0.47133209  F       0.00000019      -0.00000002       0.00000001
Mo      25.73866180      41.59391958       1.33409825  T       0.00000000       0.00000000       0.00000000
Mo      28.30647705      41.59317573       2.24157896  F       0.00000024       0.00000025      -0.00000012
Mo      23.16475657      41.59393499       3.15666654  T       0.00000000       0.00000000       0.00000000
Mo      21.88879787      43.82193383       1.30044559  T       0.00000000       0.00000000       0.00000000
Mo      24.46365118      43.82187395       2.20312707  T       0.00000000       0.00000000       0.00000000
Mo      27.03314921      43.82172485       3.10557481  F      -0.00000013      -0.00000017       0.00000014
Mo      25.76149224      46.04978762       1.24668259  T       0.00000000       0.00000000       0.00000000
Mo      28.33126195      46.05007670       2.14396051  F       0.00000021      -0.00000019       0.00000007
Mo      23.18591134      46.04984606       3.07783426  T       0.00000000       0.00000000       0.00000000
Mo      21.90573269      48.27801398       1.22850512  T       0.00000000       0.00000000       0.00000000
Mo      24.48114206      48.27807762       2.12442311  T       0.00000000       0.00000000       0.00000000
Mo      27.05666715      48.27827799       3.01738640  T       0.00000000       0.00000000       0.00000000
Mo      25.77347011      50.50723753       1.16999307  T       0.00000000       0.00000000       0.00000000
Mo      28.34800645      50.50820861       2.05811614  T       0.00000000       0.00000000       0.00000000
Mo      23.19859515      50.50671779       3.00717091  T       0.00000000       0.00000000       0.00000000
Mo      21.91450096      52.73566666       1.16491605  T       0.00000000       0.00000000       0.00000000
Mo      24.48870103      52.73653918       2.05627796  T       0.00000000       0.00000000       0.00000000
Mo      27.06238451      52.73798729       2.94421160  T       0.00000000       0.00000000       0.00000000
Mo      25.77592669      54.96793306       1.10529926  T       0.00000000       0.00000000       0.00000000
Mo      28.34800391      54.97080228       1.98955273  T       0.00000000       0.00000000       0.00000000
Mo      23.20294061      54.96606571       2.94619830  T       0.00000000       0.00000000       0.00000000
Mo      21.91656623      57.19571897       1.10996418  T       0.00000000       0.00000000       0.00000000
Mo      24.48901025      57.19793082       1.99853568  T       0.00000000       0.00000000       0.00000000
Mo      27.06057910      57.20113882       2.88369165  T       0.00000000       0.00000000       0.00000000
Mo      25.77307714      59.43134784       1.05130683  T       0.00000000       0.00000000       0.00000000
Mo      28.34329062      59.43607359       1.93386011  T       0.00000000       0.00000000       0.00000000
Mo      27.05569908      61.66615599       2.83394897  T       0.00000000       0.00000000       0.00000000
Mo      28.33750040      63.90197165       1.88883807  T       0.00000000       0.00000000       0.00000000
Mo      34.71584843      12.67913483       0.94769217  T       0.00000000       0.00000000       0.00000000
Mo      33.42467817      14.89904043      -0.90421968  T       0.00000000       0.00000000       0.00000000
Mo      36.00280837      14.90826352       0.04154607  T       0.00000000       0.00000000       0.00000000
Mo      30.84675922      14.89056446       0.88201213  T       0.00000000       0.00000000       0.00000000
Mo      29.55510134      17.11029663      -0.97237215  T       0.00000000       0.00000000       0.00000000
Mo      32.13286298      17.11819108      -0.03018646  T       0.00000000       0.00000000       0.00000000
Mo      34.71123773      17.12743856       0.91571120  T       0.00000000       0.00000000       0.00000000
Mo      33.41889362      19.34569926      -0.94288735  T       0.00000000       0.00000000       0.00000000
Mo      35.99781463      19.35587064       0.00673749  T       0.00000000       0.00000000       0.00000000
Mo      30.84074621      19.33719509       0.84106248  T       0.00000000       0.00000000       0.00000000
Mo      29.54895128      21.55683059      -1.01897051  T       0.00000000       0.00000000       0.00000000
Mo      32.12624157      21.56385348      -0.07575905  T       0.00000000       0.00000000       0.00000000
Mo      34.70482835      21.57305260       0.87278122  T       0.00000000       0.00000000       0.00000000
Mo      33.41155044      23.79020852      -0.99421166  T       0.00000000       0.00000000       0.00000000
Mo      35.98640995      23.79557518      -0.04505468  F      -0.00000016       0.00000059       0.00000035
Mo      30.83414789      23.78293432       0.78879842  T       0.00000000       0.00000000       0.00000000
Mo      29.54377768      26.00388909      -1.07735957  T       0.00000000       0.00000000       0.00000000
Mo      32.11413792      26.00407675      -0.13676583  F       0.00000030       0.00000017       0.00000004
Mo      34.69076783      26.01216968       0.80950841  F       0.00000011      -0.00000010       0.00000025
Mo      33.39757081      28.23008054      -1.06785742  F      -0.00000019       0.00000031       0.00000029
Mo      35.97334409      28.23650441      -0.11970275  F       0.00000003       0.00000026       0.00000028
Mo      30.82523515      28.22694719       0.72028677  F      -0.00000012       0.00000036       0.00000037
Mo      29.53985409      30.45192314      -1.15188378  F       0.00000006       0.00000010       0.00000011
Mo      32.10993819      30.45265416      -0.21653863  F       0.00000031       0.00000040       0.00000029
Mo      34.68204275      30.45542885       0.72499504  F      -0.00000033       0.00000008       0.00000036
Mo      33.39721895      32.67897301      -1.15973697  F       0.00000002       0.00000037       0.00000056
Mo      35.96783188      32.68062070      -0.21831326  F      -0.00000020      -0.00000004       0.00000038
Mo      30.82737626      32.67838318       0.63491691  F       0.00000019      -0.00000028       0.00000005
Mo      29.54979286      34.90600955      -1.24161087  F      -0.00000012      -0.00000002       0.00000001
Mo      32.11902635      34.90579270      -0.31465629  F       0.00000046       0.00000049       0.00000015
Mo      34.68770155      34.90594267       0.61722276  F      -0.00000012       0.00000035       0.00000001
Mo      33.41509612      37.13431401      -1.27405613  F       0.00000004      -0.00000001       0.00000008
Mo      35.98299659      37.13426719      -0.34753600  F       0.00000017       0.00000037      -0.00000012
Mo      30.84648720      37.13439610       0.53263520  F       0.00000026       0.00000021      -0.00000003
Mo      29.57640429      39.36377655      -1.34477121  F       0.00000010      -0.00000019      -0.00000010
Mo      32.14631238      39.36369745      -0.43119413  F      -0.00000020      -0.00000002       0.00000021
Mo      34.71587581      39.36401062       0.48323191  F       0.00000056      -0.00000016       0.00000035
Mo      33.44882175      41.59370099       1.32390013  F       0.00000018       0.00000047       0.00000035
Mo      36.02028671      41.59489982       2.22621467  F       0.00000034      -0.00000001       0.00000022
Mo      30.87755115      41.59309725       3.14809864  F       0.00000017       0.00000012       0.00000038
Mo      29.60580710      43.82201159       1.27767898  F       0.00000020      -0.00000007       0.00000009
Mo      32.17851015      43.82298381       2.17590760  F       0.00000001       0.00000008       0.00000011
Mo      34.75116277      43.82479484       3.06955382  F       0.00000049       0.00000045       0.00000003
Mo      33.47699651      46.05438494       1.19806928  F      -0.00000016       0.00000011      -0.00000024
Mo      36.04926510      46.05839900       2.07920061  F       0.00000022       0.00000035       0.00000014
Mo      30.90425430      46.05181184       3.03817585  F       0.00000020       0.00000011       0.00000007
Mo      29.62658918      48.28041711       1.18006220  F       0.00000012       0.00000014       0.00000025
Mo      32.19878895      48.28379091       2.06680374  F      -0.00000021       0.00000018      -0.00000018
Mo      34.77012665      48.28861437       2.94620661  F       0.00000008       0.00000032       0.00000004
Mo      33.48785384      50.51865513       1.09447871  F       0.00000029       0.00000027       0.00000021
Mo      36.05695555      50.52633524       1.96534833  F      -0.00000006       0.00000048      -0.00000003
Mo      30.91755529      50.51331620       2.94415313  F       0.00000011       0.00000013       0.00000009
Mo      29.63518777      52.74038925       1.09869792  T       0.00000000       0.00000000       0.00000000
Mo      32.20354769      52.74858813       1.97919187  F      -0.00000009       0.00000039      -0.00000035
Mo      34.77175162      52.75632400       2.85213716  F      -0.00000009       0.00000037      -0.00000022
Mo      33.48543416      54.98580865       1.01523245  F       0.00000030       0.00000022       0.00000017
Mo      36.05273688      54.99563531       1.88358883  F       0.00000032      -0.00000030       0.00000015
Mo      30.91878478      54.97518963       2.86892184  T       0.00000000       0.00000000       0.00000000
Mo      29.63099345      57.20575844       1.03564243  T       0.00000000       0.00000000       0.00000000
Mo      32.19999008      57.21229777       1.91159926  T       0.00000000       0.00000000       0.00000000
Mo      34.76744387      57.22123930       2.78166486  T       0.00000000       0.00000000       0.00000000
Mo      33.48016247      59.45079345       0.95677184  T       0.00000000       0.00000000       0.00000000
Mo      36.04697548      59.46113108       1.82523935  T       0.00000000       0.00000000       0.00000000
Mo      30.91233267      59.44245282       2.81221974  T       0.00000000       0.00000000       0.00000000
Mo      29.62484597      61.67232631       0.98540291  T       0.00000000       0.00000000       0.00000000
Mo      32.19302445      61.68011759       1.86196451  T       0.00000000       0.00000000       0.00000000
Mo      34.76040881      61.68951331       2.73437588  T       0.00000000       0.00000000       0.00000000
Mo      33.47385677      63.91787447       0.91456544  T       0.00000000       0.00000000       0.00000000
Mo      36.04138140      63.92746307       1.78689542  T       0.00000000       0.00000000       0.00000000
Mo      30.90599555      63.90926642       2.76793432  T       0.00000000       0.00000000       0.00000000
Mo      32.18731597      66.14621910       1.82386258  T       0.00000000       0.00000000       0.00000000
Mo      34.75529939      66.15498567       2.69946707  T       0.00000000       0.00000000       0.00000000
Mo      43.73609154      10.47694304       0.17262889  T       0.00000000       0.00000000       0.00000000
Mo      37.29347311      12.68772207      -0.83640976  T       0.00000000       0.00000000       0.00000000
Mo      39.87074759      12.69569490       0.11033077  T       0.00000000       0.00000000       0.00000000
Mo      42.44751838      12.70221301       1.05837421  T       0.00000000       0.00000000       0.00000000
Mo      41.15832982      14.92590284      -0.78874680  T       0.00000000       0.00000000       0.00000000
Mo      43.73525755      14.93227180       0.16301941  T       0.00000000       0.00000000       0.00000000
Mo      38.58079716      14.91754129       0.98990419  T       0.00000000       0.00000000       0.00000000
Mo      37.28985747      17.13755945      -0.86388140  T       0.00000000       0.00000000       0.00000000
Mo      39.86826261      17.14761631       0.08861065  T       0.00000000       0.00000000       0.00000000
Mo      42.44607072      17.15629861       1.04338465  T       0.00000000       0.00000000       0.00000000
Mo      41.15590462      19.37799613      -0.81077213  T       0.00000000       0.00000000       0.00000000
Mo      43.73400513      19.38683288       0.14936509  T       0.00000000       0.00000000       0.00000000
Mo      38.57702209      19.36707234       0.96068921  T       0.00000000       0.00000000       0.00000000
Mo      37.28441516      21.58434953      -0.90205116  T       0.00000000       0.00000000       0.00000000
Mo      39.86060978      21.59125621       0.05316947  F      -0.00000002      -0.00000000       0.00000040
Mo      42.44005299      21.60260535       1.01543839  F      -0.00000022      -0.00000044       0.00000012
Mo      41.14584425      23.81804099      -0.85530832  F      -0.00000015       0.00000050      -0.00000006
Mo      43.72705322      23.82963909       0.11464257  F       0.00000039       0.00000018       0.00000008
Mo      38.56578613      23.80694724       0.91100932  F       0.00000012       0.00000023       0.00000015
Mo      37.26878541      26.02082675      -0.96677970  F      -0.00000024       0.00000025       0.00000032
Mo      39.84939216      26.03193792      -0.00500753  F      -0.00000013       0.00000052       0.00000003
Mo      42.43152879      26.04442212       0.96651201  F       0.00000009      -0.00000010       0.00000005
Mo      41.13342486      28.25649171      -0.92174121  F      -0.00000004       0.00000047      -0.00000044
Mo      43.71772599      28.27039555       0.06185022  F       0.00000003      -0.00000017      -0.00000005
Mo      38.55178782      28.24491257       0.83769986  F      -0.00000039      -0.00000018       0.00000005
Mo      37.25663801      30.46033044      -1.05369796  F      -0.00000080      -0.00000013       0.00000004
Mo      39.83473633      30.46820558      -0.09099623  F       0.00000018      -0.00000046      -0.00000038
Mo      42.41749170      30.48049830       0.88908794  F      -0.00000019      -0.00000011       0.00000009
Mo      41.11713758      32.69056823      -1.02668245  F      -0.00000024       0.00000054       0.00000015
Mo      43.70090950      32.70347766      -0.03186217  F      -0.00000044      -0.00000022      -0.00000007
Mo      38.54041390      32.68392873       0.73371860  F      -0.00000002      -0.00000002       0.00000025
Mo      37.25618837      34.90641052      -1.17231189  F       0.00000037       0.00000072       0.00000015
Mo      39.82552471      34.90772529      -0.22035201  F       0.00000024       0.00000056       0.00000059
Mo      42.39911340      34.91210045       0.75377523  F      -0.00000043      -0.00000049      -0.00000049
Mo      41.11550235      37.13358046      -1.19662649  F       0.00000002      -0.00000018       0.00000006
Mo      43.68379080      37.13485841      -0.22247219  F      -0.00000016       0.00000018       0.00000008
Mo      38.54971495      37.13398990       0.58597040  F       0.00000056      -0.00000012      -0.00000023
Mo      37.28478436      39.36439146      -1.32987771  F      -0.00000001      -0.00000050      -0.00000002
Mo      39.85238556      39.36453223      -0.41113564  F      -0.00000003       0.00000032       0.00000035
Mo      42.41778338      39.36390268       0.51400615  F       0.00000018       0.00000007      -0.00000012
Mo      41.16221391      41.60052100       1.28403510  F       0.00000015      -0.00000038      -0.00000014
Mo      43.72699079      41.60738277       2.15234248  F      -0.00000026      -0.00000055      -0.00000014
Mo      38.59161978      41.59695336       3.12406079  F       0.00000047      -0.00000022       0.00000008
Mo      37.32357483      43.82798890       1.22685922  F       0.00000025      -0.00000005       0.00000042
Mo      39.89512980      43.83393147       2.10054489  F       0.00000002      -0.00000042       0.00000004
Mo      42.46431342      43.84550276       2.95043438  F      -0.00000006      -0.00000068       0.00000003
Mo      41.18932491      46.07683025       1.06934961  F       0.00000034      -0.00000026      -0.00000016
Mo      43.75638512      46.09612833       1.88821398  F       0.00000020       0.00000036      -0.00000004
Mo      38.62036359      46.06521141       2.94837917  F      -0.00000017      -0.00000029      -0.00000038
Mo      37.34025994      48.29598454       1.08636835  F      -0.00000049      -0.00000027      -0.00000003
Mo      39.90827739      48.30748136       1.94095168  F      -0.00000001      -0.00000058      -0.00000014
Mo      42.47384831      48.32456013       2.77518271  F       0.00000021      -0.00000040       0.00000007
Mo      41.18954126      50.55301992       0.94181766  F      -0.00000028      -0.00000014      -0.00000023
Mo      43.75316943      50.57252504       1.77148603  F       0.00000001      -0.00000001       0.00000034
Mo      38.62432032      50.53754000       2.82517311  F      -0.00000011       0.00000010      -0.00000004
Mo      37.33896139      52.76693754       0.98761798  F       0.00000002       0.00000055      -0.00000005
Mo      39.90434660      52.78124977       1.84188582  F      -0.00000012       0.00000038       0.00000028
Mo      42.46859274      52.79804541       2.68508390  F       0.00000029       0.00000015       0.00000007
Mo      41.18363912      55.02418402       0.86815633  F      -0.00000020       0.00000013       0.00000009
Mo      43.74870355      55.03886524       1.71359024  F      -0.00000002      -0.00000011      -0.00000013
Mo      38.61859509      55.00914468       2.74444219  F      -0.00000029      -0.00000026       0.00000018
Mo      37.33187201      57.23643752       0.91948211  F       0.00000007       0.00000029       0.00000025
Mo      39.89813025      57.25034378       1.77947723  F      -0.00000035       0.00000010       0.00000028
Mo      42.46377079      57.26427758       2.63357615  F      -0.00000019      -0.00000003      -0.00000002
Mo      41.17807408      59.49008587       0.82216955  F      -0.00000016       0.00000037       0.00000008
Mo      43.74602480      59.49870769       1.67939608  F      -0.00000005       0.00000052       0.00000010
Mo      38.61328064      59.47291321       2.68869785  T       0.00000000       0.00000000       0.00000000
Mo      37.32738371      61.70008936       0.87370096  T       0.00000000       0.00000000       0.00000000
Mo      39.89448429      61.71086413       1.73853250  T       0.00000000       0.00000000       0.00000000
Mo      42.46219878      61.72035240       2.60070457  T       0.00000000       0.00000000       0.00000000
Mo      41.17701971      63.94634953       0.79425966  T       0.00000000       0.00000000       0.00000000
Mo      43.74573101      63.95331938       1.65971381  T       0.00000000       0.00000000       0.00000000
Mo      38.60897287      63.93731466       2.65626250  T       0.00000000       0.00000000       0.00000000
Mo      37.32331250      66.16403906       0.84351516  T       0.00000000       0.00000000       0.00000000
Mo      39.89166577      66.17257482       1.71454980  T       0.00000000       0.00000000       0.00000000
Mo      42.46056085      66.17963605       2.58410590  T       0.00000000       0.00000000       0.00000000
Mo      41.17524037      68.40599815       0.77706115  T       0.00000000       0.00000000       0.00000000
Mo      43.74480208      68.41116080       1.64915460  T       0.00000000       0.00000000       0.00000000
Mo      38.60616747      68.39902414       2.63309211  T       0.00000000       0.00000000       0.00000000
Mo      48.88764139      10.47947063      -0.66394748  T       0.00000000       0.00000000       0.00000000
Mo      51.46347915      10.47694304       0.28221072  T       0.00000000       0.00000000       0.00000000
Mo      46.31192930      10.47947063       1.11878709  T       0.00000000       0.00000000       0.00000000
Mo      45.02380115      12.70649468      -0.72181061  T       0.00000000       0.00000000       0.00000000
Mo      47.59978534      12.70798809       0.22741980  T       0.00000000       0.00000000       0.00000000
Mo      50.17576954      12.70649468       1.17665022  T       0.00000000       0.00000000       0.00000000
Mo      48.88789511      14.93572275      -0.66071234  T       0.00000000       0.00000000       0.00000000
Mo      51.46431314      14.93227180       0.29182020  T       0.00000000       0.00000000       0.00000000
Mo      46.31167557      14.93572275       1.11555195  T       0.00000000       0.00000000       0.00000000
Mo      45.02316695      17.16222011      -0.72944749  T       0.00000000       0.00000000       0.00000000
Mo      47.59978534      17.16432506       0.22741980  T       0.00000000       0.00000000       0.00000000
Mo      50.17640374      17.16222011       1.18428709  T       0.00000000       0.00000000       0.00000000
Mo      48.88826642      19.39180235      -0.65609294  T       0.00000000       0.00000000       0.00000000
Mo      51.46556556      19.38683288       0.30547452  T       0.00000000       0.00000000       0.00000000
Mo      46.31130427      19.39180235       1.11093254  T       0.00000000       0.00000000       0.00000000
Mo      45.02000960      21.61144089      -0.74737567  F       0.00000028       0.00000005      -0.00000009
Mo      47.59972429      21.61548446       0.22111034  F       0.00000013      -0.00000001       0.00000021
Mo      50.17913168      21.61305085       1.19014497  F       0.00000038      -0.00000005       0.00000041
Mo      48.88953407      23.83952476      -0.66129355  F       0.00000025      -0.00000027      -0.00000006
Mo      51.47034905      23.83388697       0.31634490  F       0.00000021       0.00000019       0.00000022
Mo      46.30844477      23.83781182       1.08983872  F       0.00000029      -0.00000022      -0.00000012
Mo      45.01465635      26.05624841      -0.78162778  F      -0.00000015      -0.00000009       0.00000034
Mo      47.59783250      26.06288692       0.20592806  F       0.00000041      -0.00000023      -0.00000021
Mo      50.18078379      26.06118529       1.19570698  F       0.00000006      -0.00000059      -0.00000002
Mo      48.88899813      28.28574423      -0.66597619  F       0.00000013      -0.00000043      -0.00000013
Mo      51.47456726      28.27911708       0.33827942  F       0.00000053       0.00000023      -0.00000011
Mo      46.30326108      28.28204208       1.05851910  F       0.00000021       0.00000007       0.00000007
Mo      45.00470496      30.49575704      -0.83833535  F       0.00000017      -0.00000007      -0.00000007
Mo      47.59385788      30.50567837       0.18230522  F       0.00000030      -0.00000005       0.00000026
Mo      50.18332371      30.50426416       1.21029524  F       0.00000041      -0.00000005      -0.00000012
Mo      48.88825400      32.72439653      -0.67013602  F      -0.00000029       0.00000014      -0.00000004
Mo      51.48349953      32.71709438       0.38849264  F       0.00000016       0.00000048       0.00000007
Mo      46.29278681      32.71973329       0.99940013  F       0.00000021      -0.00000036       0.00000014
Mo      44.98274250      34.92488728      -0.95908819  F       0.00000013      -0.00000034      -0.00000001
Mo      47.58102697      34.93704537       0.12890851  F      -0.00000051       0.00000003       0.00000007
Mo      50.19487640      34.93560833       1.25603504  F       0.00000045       0.00000044      -0.00000008
Mo      48.88813470      37.13151279      -0.67249712  F       0.00000009       0.00000031      -0.00000020
Mo      51.51183609      37.14200515       0.55714937  F      -0.00000017      -0.00000048      -0.00000013
Mo      46.26252591      37.14461987       0.82038301  F      -0.00000034      -0.00000009      -0.00000047
Mo      44.98077755      39.36225674      -1.26735357  F      -0.00000021       0.00000043       0.00000016
Mo      47.56049380      39.37258831      -0.22443687  F       0.00000008       0.00000017       0.00000014
Mo      50.21291496      39.37007516       1.59496094  F      -0.00000010       0.00000036      -0.00000022
Mo      48.88449917      41.66817423       0.67671574  F       0.00000039       0.00000023       0.00000022
Mo      51.48734122      41.63755939       1.13262305  F       0.00000009       0.00000061       0.00000050
Mo      46.28136475      41.64181211       2.95166888  F       0.00000017       0.00000024      -0.00000001
Mo      45.03327468      43.87120438       1.02145296  F       0.00000027      -0.00000056       0.00000025
Mo      47.60374913      43.90767561       1.71594489  F      -0.00000028      -0.00000022       0.00000011
Mo      50.16461091      43.90552966       2.36242686  F       0.00000038      -0.00000049       0.00000013
Mo      48.88381354      46.14404405       0.67254717  F       0.00000052       0.00000032      -0.00000008
Mo      51.44687826      46.12357928       1.41317403  F       0.00000031       0.00000002      -0.00000024