1346
Lattice="119.74640719786615 0.0 0.0 0.0 113.44396471376794 0.0 0.0 0.0 3.1512212420491093" Properties=species:S:1:pos:R:3:fix_mask:L:1:forces:R:3 energy=-14399.483504119165 pbc="T T T"
Mo      15.24382339      44.45715032       1.57561062  T       0.00000000       0.00000000       0.00000000
Mo      15.18063262      47.60040303       1.57561062  T       0.00000000       0.00000000       0.00000000
Mo      15.11118199      50.74534635       1.57561062  T       0.00000000       0.00000000       0.00000000
Mo      15.03701194      53.89256117       1.57561062  T       0.00000000       0.00000000       0.00000000
Mo      13.42235382      55.46307826       0.00000000  T       0.00000000       0.00000000       0.00000000
Mo      18.11091566      57.05101653       1.57561062  T       0.00000000       0.00000000       0.00000000
Mo      16.49611954      58.62269915       0.00000000  T       0.00000000       0.00000000       0.00000000
Mo      18.02944883      60.20394750       1.57561062  T       0.00000000       0.00000000       0.00000000
Mo      17.95189642      63.35982808       1.57561062  T       0.00000000       0.00000000       0.00000000
Mo      17.88071141      66.51805941       1.57561062  T       0.00000000       0.00000000       0.00000000
Mo      18.51985895      38.18615907       1.57561062  T       0.00000000       0.00000000       0.00000000
Mo      16.91044602      39.75018755       0.00000000  T       0.00000000       0.00000000       0.00000000
Mo      18.46965684      41.32698357       1.57561062  T       0.00000000       0.00000000       0.00000000
Mo      16.85702428      42.89160550       0.00000000  T       0.00000000       0.00000000       0.00000000
Mo      18.41165309      44.46823986       1.57561062  T       0.00000000       0.00000000       0.00000000
Mo      16.79613027      46.03378990       0.00000000  T       0.00000000       0.00000000       0.00000000
Mo      18.34562014      47.61055354       1.57561062  T       0.00000000       0.00000000       0.00000000
Mo      16.72798896      49.17737736       0.00000000  T       0.00000000       0.00000000       0.00000000
Mo      18.27215553      50.75466545       1.57561062  T       0.00000000       0.00000000       0.00000000
Mo      16.65371767      52.32304797       0.00000000  T       0.00000000       0.00000000       0.00000000
Mo      18.19297658      53.90130843       1.57561062  T       0.00000000       0.00000000       0.00000000
Mo      16.57545050      55.47138304       0.00000000  T       0.00000000       0.00000000       0.00000000
Mo      21.26120009      57.06022186       1.57561062  T       0.00000000       0.00000000       0.00000000
Mo      19.64351187      58.63163995       0.00000000  T       0.00000000       0.00000000       0.00000000
Mo      21.17349670      60.21343763       1.57561062  T       0.00000000       0.00000000       0.00000000
Mo      19.56080695      61.78634887       0.00000000  T       0.00000000       0.00000000       0.00000000
Mo      21.09065807      63.37002910       1.57561062  T       0.00000000       0.00000000       0.00000000
Mo      19.48394959      64.94390058       0.00000000  T       0.00000000       0.00000000       0.00000000
Mo      21.01556836      66.52921317       1.57561062  T       0.00000000       0.00000000       0.00000000
Mo      19.41493171      68.10351373       0.00000000  T       0.00000000       0.00000000       0.00000000
Mo      20.94955850      69.69006907       1.57561062  T       0.00000000       0.00000000       0.00000000
Mo      19.35445835      71.26437810       0.00000000  T       0.00000000       0.00000000       0.00000000
Mo      20.89268446      72.85176388       1.57561062  T       0.00000000       0.00000000       0.00000000
Mo      20.84423094      76.01365644       1.57561062  T       0.00000000       0.00000000       0.00000000
Mo      21.77127421      31.91937834       1.57561062  T       0.00000000       0.00000000       0.00000000
Mo      20.16782890      33.48211179       0.00000000  T       0.00000000       0.00000000       0.00000000
Mo      21.73492084      35.06011207       1.57561062  T       0.00000000       0.00000000       0.00000000
Mo      20.12808371      36.62282671       0.00000000  T       0.00000000       0.00000000       0.00000000
Mo      21.69189361      38.20029660       1.57561062  T       0.00000000       0.00000000       0.00000000
Mo      20.08138080      39.76323680       0.00000000  T       0.00000000       0.00000000       0.00000000
Mo      21.64105588      41.34024993       1.57561062  T       0.00000000       0.00000000       0.00000000
Mo      20.02676778      42.90374055       0.00000000  T       0.00000000       0.00000000       0.00000000
Mo      21.58140534      44.48047628       1.57561062  T       0.00000000       0.00000000       0.00000000
Mo      19.96359642      46.04491736       0.00000000  T       0.00000000       0.00000000       0.00000000
Mo      21.51241764      47.62169519       1.57561062  T       0.00000000       0.00000000       0.00000000
Mo      19.89189756      49.18752184       0.00000000  T       0.00000000       0.00000000       0.00000000
Mo      21.43453907      50.76480783       1.57561062  T       0.00000000       0.00000000       0.00000000
Mo      19.81280797      52.33239923       0.00000000  T       0.00000000       0.00000000       0.00000000
Mo      21.34965958      53.91074868       1.57561062  T       0.00000000       0.00000000       0.00000000
Mo      19.72881448      55.48029949       0.00000000  T       0.00000000       0.00000000       0.00000000
Mo      24.41130125      57.07018186       1.57561062  T       0.00000000       0.00000000       0.00000000
Mo      22.79026415      58.64129812       0.00000000  T       0.00000000       0.00000000       0.00000000
Mo      24.31634469      60.22375823       1.57561062  T       0.00000000       0.00000000       0.00000000
Mo      22.70130118      61.79658490       0.00000000  T       0.00000000       0.00000000       0.00000000
Mo      24.22752965      63.38122929       1.57561062  T       0.00000000       0.00000000       0.00000000
Mo      22.61958386      64.95508149       0.00000000  T       0.00000000       0.00000000       0.00000000
Mo      24.14824892      66.54155444       1.57561062  T       0.00000000       0.00000000       0.00000000
Mo      22.54732308      68.11577895       0.00000000  T       0.00000000       0.00000000       0.00000000
Mo      24.07978450      69.70356862       1.57561062  T       0.00000000       0.00000000       0.00000000
Mo      22.48505446      71.27768235       0.00000000  T       0.00000000       0.00000000       0.00000000
Mo      24.02183797      72.86627969       1.57561062  T       0.00000000       0.00000000       0.00000000
Mo      22.43219954      74.43999312       0.00000000  T       0.00000000       0.00000000       0.00000000
Mo      23.97327754      76.02897402       1.57561062  T       0.00000000       0.00000000       0.00000000
Mo      22.38764655      77.60215207       0.00000000  T       0.00000000       0.00000000       0.00000000
Mo      23.93270042      79.19119698       1.57561062  T       0.00000000       0.00000000       0.00000000
Mo      24.97357177      28.79493107       1.57561062  T       0.00000000       0.00000000       0.00000000
Mo      23.37320606      30.35701451       0.00000000  T       0.00000000       0.00000000       0.00000000
Mo      24.94385783      31.93617304       1.57561062  T       0.00000000       0.00000000       0.00000000
Mo      23.34021569      33.49792640       0.00000000  T       0.00000000       0.00000000       0.00000000
Mo      24.90832495      35.07647716       1.57561062  T       0.00000000       0.00000000       0.00000000
Mo      23.30094146      36.63807679       0.00000000  T       0.00000000       0.00000000       0.00000000
Mo      24.86568494      38.21599199       1.57561062  T       0.00000000       0.00000000       0.00000000
Mo      23.25413671      39.77769830       0.00000000  T       0.00000000       0.00000000       0.00000000
Mo      24.81450302      41.35502178       1.57561062  T       0.00000000       0.00000000       0.00000000
Mo      23.19853421      42.91720006       0.00000000  T       0.00000000       0.00000000       0.00000000
Mo      24.75338415      44.49409727       1.57561062  T       0.00000000       0.00000000       0.00000000
Mo      23.13312078      46.05722330       0.00000000  T       0.00000000       0.00000000       0.00000000
Mo      24.67289559      47.63300259       1.57561062  F       0.00018820       0.00003609      -0.00000000
Mo      23.05761959      49.19865958       0.00000000  T       0.00000000       0.00000000       0.00000000
Mo      24.58951158      50.77606082       1.57561062  F       0.00033425      -0.00010972      -0.00000000
Mo      22.97311641      52.34256639       0.00000000  T       0.00000000       0.00000000       0.00000000
Mo      24.49754687      53.92259860       1.57561062  F       0.00045739       0.00011141      -0.00000000
Mo      22.88250863      55.48992549       0.00000000  T       0.00000000       0.00000000       0.00000000
Mo      27.55232370      57.08386780       1.57561062  F      -0.00027894      -0.00015630       0.00000000
Mo      25.93620424      58.65180059       0.00000000  T       0.00000000       0.00000000       0.00000000
Mo      27.45276497      60.23915132       1.57561062  F      -0.00026802      -0.00027438       0.00000000
Mo      25.84001454      61.80781723       0.00000000  T       0.00000000       0.00000000       0.00000000
Mo      27.35838099      63.39696325       1.57561062  F       0.00007564       0.00008403      -0.00000000
Mo      25.75293175      64.96747108       0.00000000  T       0.00000000       0.00000000       0.00000000
Mo      27.27834669      66.55534744       1.57561062  T       0.00000000       0.00000000       0.00000000
Mo      25.67735118      68.12944355       0.00000000  T       0.00000000       0.00000000       0.00000000
Mo      27.20756635      69.71868963       1.57561062  T       0.00000000       0.00000000       0.00000000
Mo      25.61348436      71.29251167       0.00000000  T       0.00000000       0.00000000       0.00000000
Mo      27.14888313      72.88250126       1.57561062  T       0.00000000       0.00000000       0.00000000
Mo      25.56026290      74.45576104       0.00000000  T       0.00000000       0.00000000       0.00000000
Mo      27.10060706      76.04600567       1.57561062  T       0.00000000       0.00000000       0.00000000
Mo      25.51613027      77.61859999       0.00000000  T       0.00000000       0.00000000       0.00000000
Mo      27.06090726      79.20875361       1.57561062  T       0.00000000       0.00000000       0.00000000
Mo      25.47950619      80.78068924       0.00000000  T       0.00000000       0.00000000       0.00000000
Mo      27.02813215      82.37052118       1.57561062  T       0.00000000       0.00000000       0.00000000
Mo      25.44898922      83.94186118       0.00000000  T       0.00000000       0.00000000       0.00000000
Mo      27.00090659      85.53122495       1.57561062  T       0.00000000       0.00000000       0.00000000
Mo      28.16953309      25.67122943       1.57561062  T       0.00000000       0.00000000       0.00000000
Mo      26.57234738      27.23303491       0.00000000  T       0.00000000       0.00000000       0.00000000
Mo      28.14594230      28.81354749       1.57561062  T       0.00000000       0.00000000       0.00000000
Mo      26.54577782      30.37474928       0.00000000  T       0.00000000       0.00000000       0.00000000
Mo      28.11757391      31.95468677       1.57561062  T       0.00000000       0.00000000       0.00000000
Mo      26.51389988      33.51538681       0.00000000  T       0.00000000       0.00000000       0.00000000
Mo      28.08321490      35.09464876       1.57561062  T       0.00000000       0.00000000       0.00000000
Mo      26.47544111      36.65501804       0.00000000  T       0.00000000       0.00000000       0.00000000
Mo      28.04136046      38.23353321       1.57561062  T       0.00000000       0.00000000       0.00000000
Mo      26.42889208      39.79384173       0.00000000  T       0.00000000       0.00000000       0.00000000
Mo      27.98371426      41.36891212       1.57561062  F       0.00002309      -0.00008644      -0.00000000
Mo      26.36613150      42.93001907      -0.00000000  F      -0.00005384       0.00000167       0.00000000
Mo      27.91810504      44.50589466       1.57561062  F       0.00011790       0.00003864      -0.00000000
Mo      26.29612936      46.06915354       0.00000000  F       0.00013045       0.00000379      -0.00000000
Mo      27.83817097      47.64555052       1.57561062  F      -0.00010332       0.00012734       0.00000000
Mo      26.21350670      49.21008648      -0.00000000  F       0.00020474       0.00006218       0.00000000
Mo      27.74771713      50.78784579       1.57561062  F      -0.00002249      -0.00004341       0.00000000
Mo      26.12232671      52.35463991       0.00000000  F       0.00027612      -0.00019333       0.00000000
Mo      27.65016743      53.93389054       1.57561062  F      -0.00044050      -0.00031462      -0.00000000
Mo      26.02713713      55.50174827       0.00000000  F       0.00037356       0.00000267       0.00000000
Mo      30.69446207      57.09838367       1.57561062  F      -0.00018983       0.00001349      -0.00000000
Mo      29.07220785      58.66891561      -0.00000000  F      -0.00030184      -0.00019286       0.00000000
Mo      30.58822527      60.25513819       1.57561062  F      -0.00012521       0.00008383       0.00000000
Mo      28.97162361      61.82654451       0.00000000  F      -0.00029758      -0.00022920      -0.00000000
Mo      30.48976762      63.41507168       1.57561062  F      -0.00019088       0.00012803      -0.00000000
Mo      28.88124539      64.98620424       0.00000000  F      -0.00040635       0.00003538       0.00000000
Mo      30.40427259      66.57721745       1.57561062  F      -0.00026651      -0.00005541       0.00000000
Mo      28.80264210      68.14795722       0.00000000  F      -0.00005114      -0.00003926       0.00000000
Mo      30.33182065      69.74007625       1.57561062  F      -0.00048197      -0.00037329       0.00000000
Mo      28.73949733      71.30918289       0.00000000  T       0.00000000       0.00000000       0.00000000
Mo      30.27205761      72.90321346       1.57561062  F      -0.00000416      -0.00005800       0.00000000
Mo      28.68634910      74.47340133       0.00000000  T       0.00000000       0.00000000       0.00000000
Mo      30.22615032      76.06505420       1.57561062  T       0.00000000       0.00000000       0.00000000
Mo      28.64306944      77.63687773       0.00000000  T       0.00000000       0.00000000       0.00000000
Mo      30.18777453      79.22823076       1.57561062  T       0.00000000       0.00000000       0.00000000
Mo      28.60770025      80.79930973       0.00000000  T       0.00000000       0.00000000       0.00000000
Mo      30.15655063      82.39013751       1.57561062  T       0.00000000       0.00000000       0.00000000
Mo      28.57860728      83.96058076       0.00000000  T       0.00000000       0.00000000       0.00000000
Mo      30.13092797      85.55075219       1.57561062  T       0.00000000       0.00000000       0.00000000
Mo      28.55448879      87.12068121       0.00000000  T       0.00000000       0.00000000       0.00000000
Mo      30.10970947      88.71012723       1.57561062  T       0.00000000       0.00000000       0.00000000
Mo      31.35922994      22.54748622       1.57561062  T       0.00000000       0.00000000       0.00000000
Mo      29.76514877      24.10941450       0.00000000  T       0.00000000       0.00000000       0.00000000
Mo      31.34101732      25.69135759       1.57561062  T       0.00000000       0.00000000       0.00000000
Mo      29.74434828      27.25245570       0.00000000  T       0.00000000       0.00000000       0.00000000
Mo      31.31907213      28.83395100       1.57561062  T       0.00000000       0.00000000       0.00000000
Mo      29.71930060      30.39425177       0.00000000  T       0.00000000       0.00000000       0.00000000
Mo      31.29237839      31.97516132       1.57561062  T       0.00000000       0.00000000       0.00000000
Mo      29.68888228      33.53474552       0.00000000  T       0.00000000       0.00000000       0.00000000
Mo      31.25618501      35.11148385       1.57561062  F      -0.00003668      -0.00007576       0.00000000
Mo      29.65165410      36.67394882       0.00000000  T       0.00000000       0.00000000       0.00000000
Mo      31.21457639      38.24840771       1.57561062  F      -0.00006772      -0.00022323      -0.00000000
Mo      29.60038900      39.80859542      -0.00000000  F       0.00007572      -0.00019486       0.00000000
Mo      31.15870844      41.38459151       1.57561062  F      -0.00018369      -0.00008806       0.00000000
Mo      29.53860727      42.94470536       0.00000000  F      -0.00023080      -0.00014396      -0.00000000
Mo      31.08949646      44.52086387       1.57561062  F      -0.00022249      -0.00009037       0.00000000
Mo      29.46395695      46.08241922       0.00000000  F      -0.00020660      -0.00011195      -0.00000000
Mo      31.00517467      47.65913016       1.57561062  F      -0.00021412      -0.00020531       0.00000000
Mo      29.37586104      49.22266303       0.00000000  F      -0.00018857       0.00000890      -0.00000000
Mo      30.90787598      50.80070436       1.57561062  F      -0.00020137      -0.00003276      -0.00000000
Mo      29.27764089      52.36667427       0.00000000  F      -0.00044334       0.00003176       0.00000000
Mo      30.80223201      53.94687662       1.57561062  F      -0.00037804       0.00008028      -0.00000000
Mo      29.17482083      55.51510689      -0.00000000  F      -0.00041004      -0.00017883       0.00000000
Mo      33.83615914      57.11260462       1.57561062  F       0.00042509       0.00066060      -0.00000000
Mo      32.20961918      58.68359435       0.00000000  F      -0.00001403       0.00024874       0.00000000
Mo      33.72142137      60.27075603       1.57561062  F      -0.00004891       0.00055434      -0.00000000
Mo      32.10316185      61.84308274      -0.00000000  F      -0.00025929       0.00013568       0.00000000
Mo      33.61745283      63.43289088       1.57561062  F      -0.00014244       0.00047381       0.00000000
Mo      32.00869370      65.00532082       0.00000000  F      -0.00035918      -0.00002619      -0.00000000
Mo      33.52871395      66.59708392       1.57561062  F      -0.00041987       0.00021794      -0.00000000
Mo      31.92854807      68.16899009       0.00000000  F      -0.00030912      -0.00005971      -0.00000000
Mo      33.45554632      69.76179268       1.57561062  F      -0.00073334       0.00032992      -0.00000000
Mo      31.86277265      71.33300316       0.00000000  F      -0.00064722      -0.00012932      -0.00000000
Mo      33.39628841      72.92601161       1.57561062  F      -0.00086315       0.00012657       0.00000000
Mo      31.80932849      74.49571668      -0.00000000  F      -0.00019539      -0.00001575      -0.00000000
Mo      33.34933785      76.08874928       1.57561062  F      -0.00034164       0.00045784       0.00000000
Mo      31.76845775      77.65728723       0.00000000  T       0.00000000       0.00000000       0.00000000
Mo      33.31335619      79.24991743       1.57561062  T       0.00000000       0.00000000       0.00000000
Mo      31.73478143      80.81991072       0.00000000  T       0.00000000       0.00000000       0.00000000
Mo      33.28409528      82.41175759       1.57561062  T       0.00000000       0.00000000       0.00000000
Mo      31.70745814      83.98110143       0.00000000  T       0.00000000       0.00000000       0.00000000
Mo      33.26038967      85.57206143       1.57561062  T       0.00000000       0.00000000       0.00000000
Mo      31.68506468      87.14091601       0.00000000  T       0.00000000       0.00000000       0.00000000
Mo      33.24096794      88.73094885       1.57561062  T       0.00000000       0.00000000       0.00000000
Mo      31.66652613      90.29945708       0.00000000  T       0.00000000       0.00000000       0.00000000
Mo      33.22488405      91.88856136       1.57561062  T       0.00000000       0.00000000       0.00000000
Mo      34.54298878      19.42285460       1.57561062  T       0.00000000       0.00000000       0.00000000
Mo      32.95182427      20.98533680       0.00000000  T       0.00000000       0.00000000       0.00000000
Mo      34.52932308      22.56865393       1.57561062  T       0.00000000       0.00000000       0.00000000
Mo      32.93599034      24.13013224       0.00000000  T       0.00000000       0.00000000       0.00000000
Mo      34.51286692      25.71320175       1.57561062  T       0.00000000       0.00000000       0.00000000
Mo      32.91691176      27.27364829       0.00000000  T       0.00000000       0.00000000       0.00000000
Mo      34.49283631      28.85632706       1.57561062  T       0.00000000       0.00000000       0.00000000
Mo      32.89368815      30.41574212       0.00000000  T       0.00000000       0.00000000       0.00000000
Mo      34.46525034      31.99334394       1.57561062  F      -0.00011214      -0.00013407       0.00000000
Mo      32.86189593      33.55213208       0.00000000  F      -0.00023358      -0.00015092      -0.00000000
Mo      34.43247520      35.13039112       1.57561062  F      -0.00023488      -0.00034115       0.00000000
Mo      32.82495767      36.68868321      -0.00000000  F      -0.00016575      -0.00022955       0.00000000
Mo      34.39124432      38.26691448       1.57561062  F      -0.00032755      -0.00034118       0.00000000
Mo      32.77659101      39.82533189      -0.00000000  F      -0.00006605      -0.00031616       0.00000000
Mo      34.33599654      41.40236776       1.57561062  F      -0.00008078      -0.00014989      -0.00000000
Mo      32.71372477      42.96094194      -0.00000000  F      -0.00042353      -0.00036564       0.00000000
Mo      34.26461831      44.53756205       1.57561062  F       0.00009970       0.00000629       0.00000000
Mo      32.63519059      46.09741592       0.00000000  F       0.00001618      -0.00021754      -0.00000000
Mo      34.17542874      47.67428601       1.57561062  F       0.00079170       0.00012810       0.00000000
Mo      32.54090881      49.23646809       0.00000000  F       0.00021929      -0.00003877      -0.00000000
Mo      34.07032562      50.81463036       1.57561062  F       0.00093237       0.00019108       0.00000000
Mo      32.43438015      52.37983445       0.00000000  F       0.00029913       0.00037736      -0.00000000
Mo      33.95475582      53.96041333       1.57561062  F       0.00070768       0.00051996       0.00000000
Mo      32.32187569      55.52873791       0.00000000  F       0.00007692       0.00059173       0.00000000
Mo      36.97708328      57.12784024       1.57561062  F       0.00066773       0.00024005       0.00000000
Mo      35.34579760      58.69881417       0.00000000  F      -0.00010122       0.00058025      -0.00000000
Mo      36.85181763      60.28767514       1.57561062  F       0.00022229       0.00007753      -0.00000000
Mo      35.23152666      61.86020306      -0.00000000  F      -0.00026063       0.00065916       0.00000000
Mo      36.74118069      63.45212544       1.57561062  F      -0.00030392       0.00027053      -0.00000000
Mo      35.13253825      65.02471055       0.00000000  F      -0.00029901       0.00058721      -0.00000000
Mo      36.64944092      66.61852438       1.57561062  F      -0.00065231       0.00046150       0.00000000
Mo      35.05084845      68.19030050       0.00000000  F      -0.00038420       0.00054937       0.00000000
Mo      36.57607201      69.78491510       1.57561062  F      -0.00085123       0.00080124       0.00000000
Mo      34.98529147      71.35554368       0.00000000  F      -0.00082059       0.00055068      -0.00000000
Mo      36.51832070      72.95023276       1.57561062  F      -0.00101650       0.00055254       0.00000000
Mo      34.93323877      74.51960762       0.00000000  F      -0.00136292       0.00050545      -0.00000000
Mo      36.47316329      76.11387546       1.57561062  F      -0.00112047       0.00055477      -0.00000000
Mo      34.89210873      77.68226332      -0.00000000  F      -0.00004503       0.00060770      -0.00000000
Mo      36.43759504      79.27594257       1.57561062  F       0.00026377       0.00094345       0.00000000
Mo      34.86085934      80.84275402       0.00000000  T       0.00000000       0.00000000       0.00000000
Mo      36.41092566      82.43559903       1.57561062  T       0.00000000       0.00000000       0.00000000
Mo      34.83567896      84.00360571       0.00000000  T       0.00000000       0.00000000       0.00000000
Mo      36.38946367      85.59528338       1.57561062  T       0.00000000       0.00000000       0.00000000
Mo      34.81528714      87.16287264       0.00000000  T       0.00000000       0.00000000       0.00000000
Mo      36.37207408      88.75338503       1.57561062  T       0.00000000       0.00000000       0.00000000
Mo      34.79857334      90.32072312       0.00000000  T       0.00000000       0.00000000       0.00000000
Mo      36.35780546      91.91010716       1.57561062  T       0.00000000       0.00000000       0.00000000
Mo      36.13278777      17.85992466       0.00000000  T       0.00000000       0.00000000       0.00000000
Mo      37.71134465      19.44441293       1.57561062  T       0.00000000       0.00000000       0.00000000
Mo      36.12108259      21.00679227       0.00000000  T       0.00000000       0.00000000       0.00000000
Mo      37.69940066      22.59128005       1.57561062  T       0.00000000       0.00000000       0.00000000
Mo      36.10700337      24.15246355       0.00000000  T       0.00000000       0.00000000       0.00000000
Mo      37.68489239      25.73682989       1.57561062  T       0.00000000       0.00000000       0.00000000
Mo      36.08987828      27.29674816       0.00000000  T       0.00000000       0.00000000       0.00000000
Mo      37.66488675      28.87647765       1.57561062  F      -0.00007367      -0.00005624      -0.00000000
Mo      36.06620707      30.43482960       0.00000000  F      -0.00014641      -0.00031086       0.00000000
Mo      37.64076213      32.01548817       1.57561062  F      -0.00046414      -0.00028302      -0.00000000
Mo      36.03797096      33.57275381       0.00000000  F      -0.00037010      -0.00032021      -0.00000000
Mo      37.61064663      35.15300091       1.57561062  F      -0.00054983      -0.00022091      -0.00000000
Mo      36.00257014      36.70956128       0.00000000  F      -0.00052893      -0.00017773      -0.00000000
Mo      37.57070937      38.28885478       1.57561062  F      -0.00051394       0.00016712      -0.00000000
Mo      35.95518944      39.84506130      -0.00000000  F      -0.00013512      -0.00002677       0.00000000
Mo      37.51652352      41.42323535       1.57561062  F      -0.00028422       0.00038832       0.00000000
Mo      35.89209872      42.97955939       0.00000000  F      -0.00002344       0.00024928      -0.00000000
Mo      37.44387725      44.55682793       1.57561062  F       0.00081041       0.00077737       0.00000000
Mo      35.81029953      46.11439244      -0.00000000  F       0.00084550       0.00038114       0.00000000
Mo      37.34996520      47.69151127       1.57561062  F       0.00105788       0.00057561      -0.00000000
Mo      35.70934975      49.25171725       0.00000000  F       0.00094212       0.00039665      -0.00000000
Mo      37.23595755      50.83003481       1.57561062  F       0.00084471       0.00039800       0.00000000
Mo      35.59305379      52.39398355       0.00000000  F       0.00060097       0.00041458      -0.00000000
Mo      37.10842874      53.97504889       1.57561062  F       0.00080038       0.00048658       0.00000000
Mo      35.46902057      55.54290710      -0.00000000  F       0.00003836       0.00058071      -0.00000000
Mo      40.11682708      57.14460753       1.57561062  F       0.00078976      -0.00030316      -0.00000000
Mo      38.47978132      58.71562284       0.00000000  F       0.00077857      -0.00029610      -0.00000000
Mo      39.97848662      60.30657676       1.57561062  F       0.00060719      -0.00016666       0.00000000
Mo      38.35590967      61.87939323      -0.00000000  F       0.00057998      -0.00056489       0.00000000
Mo      39.86003091      63.47398687       1.57561062  F       0.00051595      -0.00079114       0.00000000
Mo      38.25203947      65.04648737       0.00000000  F       0.00000746      -0.00040019      -0.00000000
Mo      39.76563252      66.64307112       1.57561062  F       0.00005812      -0.00117431       0.00000000
Mo      38.16926227      68.21416013       0.00000000  F      -0.00066883       0.00017090      -0.00000000
Mo      39.69292152      69.81136813       1.57561062  F      -0.00070892      -0.00060520      -0.00000000
Mo      38.10480929      71.38084173       0.00000000  F      -0.00110476       0.00053381      -0.00000000
Mo      39.63746721      72.97778570       1.57561062  F      -0.00109067      -0.00020697      -0.00000000
Mo      38.05496355      74.54578032      -0.00000000  F      -0.00151488       0.00011492       0.00000000
Mo      39.59509851      76.14190516       1.57561062  F      -0.00157051      -0.00030250      -0.00000000
Mo      38.01608516      77.70862376      -0.00000000  F      -0.00043203       0.00083687       0.00000000
Mo      39.56200397      79.30368227       1.57561062  F       0.00033480       0.00078572      -0.00000000
Mo      37.98570621      80.86982622       0.00000000  F       0.00064887       0.00111888      -0.00000000