1216
Lattice="119.41295399346626 0.0 0.0 0.0 112.77890099382925 0.0 0.0 0.0 3.3170264998185073" Properties=species:S:1:pos:R:3:fix_mask:L:1:forces:R:3 energy=-12102.742182656286 pbc="T T T"
Nb      16.21661568      43.75265811       1.65851325  T       0.00000000       0.00000000       0.00000000
Nb      16.13396843      47.05853439       1.65851325  T       0.00000000       0.00000000       0.00000000
Nb      14.41515890      48.70863588      -0.00000000  T       0.00000000       0.00000000       0.00000000
Nb      16.02396050      50.36516038       1.65851325  T       0.00000000       0.00000000       0.00000000
Nb      14.29271935      52.01687158      -0.00000000  T       0.00000000       0.00000000       0.00000000
Nb      15.88465082      53.67463464       1.65851325  T       0.00000000       0.00000000       0.00000000
Nb      14.14659290      55.32908069      -0.00000000  T       0.00000000       0.00000000       0.00000000
Nb      19.04152176      56.99399178       1.65851325  T       0.00000000       0.00000000       0.00000000
Nb      17.30308302      58.65153960       0.00000000  T       0.00000000       0.00000000       0.00000000
Nb      18.87842911      60.31555604       1.65851325  T       0.00000000       0.00000000       0.00000000
Nb      17.15751925      61.97546757       0.00000000  T       0.00000000       0.00000000       0.00000000
Nb      18.74512939      63.64199993       1.65851325  T       0.00000000       0.00000000       0.00000000
Nb      17.04309858      65.30263282       0.00000000  T       0.00000000       0.00000000       0.00000000
Nb      18.64532132      66.97033853       1.65851325  T       0.00000000       0.00000000       0.00000000
Nb      18.57230476      70.29873644       1.65851325  T       0.00000000       0.00000000       0.00000000
Nb      19.69391321      33.84071976       1.65851325  T       0.00000000       0.00000000       0.00000000
Nb      19.65955474      37.14834146       1.65851325  T       0.00000000       0.00000000       0.00000000
Nb      17.97079151      38.79729752      -0.00000000  T       0.00000000       0.00000000       0.00000000
Nb      19.61453765      40.45494527       1.65851325  T       0.00000000       0.00000000       0.00000000
Nb      17.91800598      42.10364286      -0.00000000  T       0.00000000       0.00000000       0.00000000
Nb      19.55411273      43.76056994       1.65851325  T       0.00000000       0.00000000       0.00000000
Nb      17.84700796      45.40924988      -0.00000000  T       0.00000000       0.00000000       0.00000000
Nb      19.47146009      47.06557902       1.65851325  T       0.00000000       0.00000000       0.00000000
Nb      17.75071402      48.71481533      -0.00000000  T       0.00000000       0.00000000       0.00000000
Nb      19.35847369      50.37109738       1.65851325  T       0.00000000       0.00000000       0.00000000
Nb      17.62305463      52.02199777      -0.00000000  T       0.00000000       0.00000000       0.00000000
Nb      19.21120842      53.67953135       1.65851325  T       0.00000000       0.00000000       0.00000000
Nb      17.46711043      55.33351007      -0.00000000  T       0.00000000       0.00000000       0.00000000
Nb      22.35560206      56.99892051       1.65851325  T       0.00000000       0.00000000       0.00000000
Nb      20.61107319      58.65650239       0.00000000  T       0.00000000       0.00000000       0.00000000
Nb      22.18026975      60.32123749       1.65851325  T       0.00000000       0.00000000       0.00000000
Nb      20.45678398      61.98143237       0.00000000  T       0.00000000       0.00000000       0.00000000
Nb      22.04114041      63.64891325       1.65851325  T       0.00000000       0.00000000       0.00000000
Nb      20.33915360      65.30971595       0.00000000  T       0.00000000       0.00000000       0.00000000
Nb      21.94030259      66.97831849       1.65851325  T       0.00000000       0.00000000       0.00000000
Nb      20.25384819      68.63868033       0.00000000  T       0.00000000       0.00000000       0.00000000
Nb      21.86838941      70.30746968       1.65851325  T       0.00000000       0.00000000       0.00000000
Nb      20.19194989      71.96708148       0.00000000  T       0.00000000       0.00000000       0.00000000
Nb      21.81620617      73.63565645       1.65851325  T       0.00000000       0.00000000       0.00000000
Nb      20.14609748      75.29451645       0.00000000  T       0.00000000       0.00000000       0.00000000
Nb      21.77729746      76.96273669       1.65851325  T       0.00000000       0.00000000       0.00000000
Nb      23.05273030      30.54237981       1.65851325  T       0.00000000       0.00000000       0.00000000
Nb      21.37444609      32.19151103      -0.00000000  T       0.00000000       0.00000000       0.00000000
Nb      23.02745162      33.85079214       1.65851325  T       0.00000000       0.00000000       0.00000000
Nb      21.34497608      35.49951541      -0.00000000  T       0.00000000       0.00000000       0.00000000
Nb      22.99486712      37.15816346       1.65851325  T       0.00000000       0.00000000       0.00000000
Nb      21.30666135      38.80647303      -0.00000000  T       0.00000000       0.00000000       0.00000000
Nb      22.95173092      40.46436924       1.65851325  T       0.00000000       0.00000000       0.00000000
Nb      21.25552815      42.11231993      -0.00000000  T       0.00000000       0.00000000       0.00000000
Nb      22.89296595      43.76937469       1.65851325  T       0.00000000       0.00000000       0.00000000
Nb      21.18553778      45.41717889      -0.00000000  T       0.00000000       0.00000000       0.00000000
Nb      22.81083999      47.07345372       1.65851325  T       0.00000000       0.00000000       0.00000000
Nb      21.08825383      48.72169144      -0.00000000  T       0.00000000       0.00000000       0.00000000
Nb      22.69519752      50.37771327       1.65851325  T       0.00000000       0.00000000       0.00000000
Nb      20.95525083      52.02764116      -0.00000000  T       0.00000000       0.00000000       0.00000000
Nb      22.53927777      53.68489046       1.65851325  T       0.00000000       0.00000000       0.00000000
Nb      20.78817790      55.33829736      -0.00000000  T       0.00000000       0.00000000       0.00000000
Nb      25.66910789      57.00429331       1.65851325  T       0.00000000       0.00000000       0.00000000
Nb      23.91752457      58.66193530       0.00000000  T       0.00000000       0.00000000       0.00000000
Nb      25.47972151      60.32755889       1.65851325  T       0.00000000       0.00000000       0.00000000
Nb      23.75370058      61.98808543       0.00000000  T       0.00000000       0.00000000       0.00000000
Nb      25.33476133      63.65668889       1.65851325  T       0.00000000       0.00000000       0.00000000
Nb      23.63322324      65.31764271       0.00000000  T       0.00000000       0.00000000       0.00000000
Nb      25.23353855      66.98726631       1.65851325  T       0.00000000       0.00000000       0.00000000
Nb      23.54852546      68.64754631       0.00000000  T       0.00000000       0.00000000       0.00000000
Nb      25.16330810      70.31719796       1.65851325  T       0.00000000       0.00000000       0.00000000
Nb      23.48840964      71.97656652       0.00000000  T       0.00000000       0.00000000       0.00000000
Nb      25.11327929      73.64587509       1.65851325  T       0.00000000       0.00000000       0.00000000
Nb      23.44454044      75.30439493       0.00000000  T       0.00000000       0.00000000       0.00000000
Nb      25.07643742      76.97325572       1.65851325  T       0.00000000       0.00000000       0.00000000
Nb      23.41154094      78.63105824       0.00000000  T       0.00000000       0.00000000       0.00000000
Nb      25.04844417      80.29946596       1.65851325  T       0.00000000       0.00000000       0.00000000
Nb      25.02658797      83.62466216       1.65851325  T       0.00000000       0.00000000       0.00000000
Nb      26.40358626      27.24434317       1.65851325  T       0.00000000       0.00000000       0.00000000
Nb      24.72903241      28.89332322      -0.00000000  T       0.00000000       0.00000000       0.00000000
Nb      26.38497227      30.55360584       1.65851325  T       0.00000000       0.00000000       0.00000000
Nb      24.70734316      32.20215729      -0.00000000  T       0.00000000       0.00000000       0.00000000
Nb      26.36140259      33.86189417       1.65851325  T       0.00000000       0.00000000       0.00000000
Nb      24.67963382      35.50997757      -0.00000000  T       0.00000000       0.00000000       0.00000000
Nb      26.33079614      37.16903939       1.65851325  T       0.00000000       0.00000000       0.00000000
Nb      24.64329318      38.81662796      -0.00000000  T       0.00000000       0.00000000       0.00000000
Nb      26.28985730      40.47486343       1.65851325  T       0.00000000       0.00000000       0.00000000
Nb      24.59418921      42.12197992      -0.00000000  T       0.00000000       0.00000000       0.00000000
Nb      26.25095920      43.77773527       1.65851325  F       0.00047333      -0.00063182       0.00000000
Nb      24.52574319      45.42606067      -0.00000000  T       0.00000000       0.00000000       0.00000000
Nb      26.17145859      47.07245734       1.65851325  F       0.00033400      -0.00010441      -0.00000000
Nb      24.43798437      48.72407495       0.00000000  F       0.00021532      -0.00032775      -0.00000000
Nb      26.04022554      50.37324467       1.65851325  F       0.00020723       0.00020606      -0.00000000
Nb      24.28933277      52.02924789       0.00000000  F      -0.00052904      -0.00018647      -0.00000000
Nb      25.86345855      53.68349069       1.65851325  F       0.00018528       0.00061741       0.00000000
Nb      24.10892170      55.34302205      -0.00000000  F       0.00061582       0.00067883       0.00000000
Nb      28.97725275      56.99537817       1.65851325  F       0.00060875       0.00096824       0.00000000
Nb      27.22220492      58.66129433      -0.00000000  F      -0.00030312      -0.00072218      -0.00000000
Nb      28.77575937      60.31992442       1.65851325  F       0.00016683       0.00007779       0.00000000
Nb      27.04446119      61.98878693      -0.00000000  F       0.00077972      -0.00021256       0.00000000
Nb      28.61556442      63.65187352       1.65851325  F       0.00069836       0.00058286      -0.00000000
Nb      26.92511113      65.32659447       0.00000000  T       0.00000000       0.00000000       0.00000000
Nb      28.51283061      66.99114636       1.65851325  F      -0.00012135       0.00033957      -0.00000000
Nb      26.84174290      68.65749283       0.00000000  T       0.00000000       0.00000000       0.00000000
Nb      28.45704651      70.32811263       1.65851325  T       0.00000000       0.00000000       0.00000000
Nb      26.78392438      71.98713297       0.00000000  T       0.00000000       0.00000000       0.00000000
Nb      28.40960129      73.65726213       1.65851325  T       0.00000000       0.00000000       0.00000000
Nb      26.74236777      75.31533534       0.00000000  T       0.00000000       0.00000000       0.00000000
Nb      28.37509230      76.98491392       1.65851325  T       0.00000000       0.00000000       0.00000000
Nb      26.71142679      78.64221647       0.00000000  T       0.00000000       0.00000000       0.00000000
Nb      28.34909360      80.31126822       1.65851325  T       0.00000000       0.00000000       0.00000000
Nb      26.68766831      81.96795440       0.00000000  T       0.00000000       0.00000000       0.00000000
Nb      28.32891911      83.63652470       1.65851325  T       0.00000000       0.00000000       0.00000000
Nb      26.66894435      85.29271853       0.00000000  T       0.00000000       0.00000000       0.00000000
Nb      28.31287549      86.96085376       1.65851325  T       0.00000000       0.00000000       0.00000000
Nb      29.74823400      23.94663370       1.65851325  T       0.00000000       0.00000000       0.00000000
Nb      28.07659500      25.59544454      -0.00000000  T       0.00000000       0.00000000       0.00000000
Nb      29.73452828      27.25676260       1.65851325  T       0.00000000       0.00000000       0.00000000
Nb      28.06061981      28.90513915      -0.00000000  T       0.00000000       0.00000000       0.00000000
Nb      29.71746422      30.56601013       1.65851325  T       0.00000000       0.00000000       0.00000000
Nb      28.04056567      32.21390490      -0.00000000  T       0.00000000       0.00000000       0.00000000
Nb      29.69573802      33.87421207       1.65851325  T       0.00000000       0.00000000       0.00000000
Nb      28.01478300      35.52157194      -0.00000000  T       0.00000000       0.00000000       0.00000000
Nb      29.66721738      37.18442711       1.65851325  F      -0.00124897       0.00021837       0.00000000
Nb      27.98067518      38.82794133      -0.00000000  T       0.00000000       0.00000000       0.00000000
Nb      29.64352149      40.48678043       1.65851325  F      -0.00060153       0.00055892      -0.00000000
Nb      27.95459791      42.13118894      -0.00000000  F      -0.00012180      -0.00037871      -0.00000000
Nb      29.61643666      43.78223075       1.65851325  F       0.00063943      -0.00029219      -0.00000000
Nb      27.90058753      45.42581559      -0.00000000  F       0.00033116      -0.00013034       0.00000000
Nb      29.53345489      47.07365802       1.65851325  F       0.00028038      -0.00068354       0.00000000
Nb      27.78861898      48.72085532      -0.00000000  F       0.00070686      -0.00012519       0.00000000
Nb      29.38200231      50.37135037       1.65851325  F      -0.00051885      -0.00038088      -0.00000000
Nb      27.62140865      52.02502812      -0.00000000  F      -0.00007101      -0.00004735       0.00000000
Nb      29.18700750      53.67892028       1.65851325  F      -0.00020120       0.00051357      -0.00000000
Nb      27.42437168      55.33941933      -0.00000000  F      -0.00027225      -0.00115982      -0.00000000
Nb      32.28759674      56.99469674       1.65851325  F      -0.00070559       0.00084003       0.00000000
Nb      30.52522952      58.65437147       0.00000000  F      -0.00052856       0.00011263      -0.00000000
Nb      32.07094285      60.31788282       1.65851325  F       0.00061353       0.00181682      -0.00000000
Nb      30.33233832      61.98237655       0.00000000  F      -0.00077370      -0.00032966       0.00000000
Nb      31.89406153      63.65023300       1.65851325  F       0.00024019       0.00171532       0.00000000
Nb      30.19403932      65.31885470       0.00000000  F      -0.00001988       0.00037756      -0.00000000
Nb      31.78440198      66.99050390       1.65851325  F       0.00044967       0.00122317       0.00000000
Nb      30.11682191      68.65950769       0.00000000  F       0.00128232       0.00013506       0.00000000
Nb      31.73470303      70.33054619       1.65851325  F       0.00133041       0.00156994      -0.00000000
Nb      30.07686114      71.99555863      -0.00000000  F      -0.00026957       0.00027395       0.00000000
Nb      31.70501606      73.66533421       1.65851325  F       0.00016092       0.00082424      -0.00000000
Nb      30.03960874      75.32753497       0.00000000  T       0.00000000       0.00000000       0.00000000
Nb      31.67329906      76.99792841       1.65851325  T       0.00000000       0.00000000       0.00000000
Nb      30.01093812      78.65459641       0.00000000  T       0.00000000       0.00000000       0.00000000
Nb      31.64946258      80.32438106       1.65851325  T       0.00000000       0.00000000       0.00000000
Nb      29.98907930      81.98041107       0.00000000  T       0.00000000       0.00000000       0.00000000
Nb      31.63107810      83.64965071       1.65851325  T       0.00000000       0.00000000       0.00000000
Nb      29.97194375      85.30518212       0.00000000  T       0.00000000       0.00000000       0.00000000
Nb      31.61652652      86.97393393       1.65851325  T       0.00000000       0.00000000       0.00000000
Nb      29.95819963      88.62907410       0.00000000  T       0.00000000       0.00000000       0.00000000
Nb      31.60476113      90.29738583       1.65851325  T       0.00000000       0.00000000       0.00000000
Nb      33.08798382      20.64929935       1.65851325  T       0.00000000       0.00000000       0.00000000
Nb      31.41865394      22.29791700      -0.00000000  T       0.00000000       0.00000000       0.00000000
Nb      33.07792860      23.96030945       1.65851325  T       0.00000000       0.00000000       0.00000000
Nb      31.40690550      25.60848355      -0.00000000  T       0.00000000       0.00000000       0.00000000
Nb      33.06559441      27.27053026       1.65851325  T       0.00000000       0.00000000       0.00000000
Nb      31.39239088      28.91821572      -0.00000000  T       0.00000000       0.00000000       0.00000000
Nb      33.05016909      30.57981724       1.65851325  T       0.00000000       0.00000000       0.00000000
Nb      31.37408089      32.22695842      -0.00000000  T       0.00000000       0.00000000       0.00000000
Nb      33.02685018      33.88965859       1.65851325  F       0.00103181       0.00013561      -0.00000000
Nb      31.34763770      35.53756749       0.00000000  F      -0.00067092      -0.00040397      -0.00000000
Nb      33.00069166      37.19576790       1.65851325  F      -0.00110901       0.00082148       0.00000000
Nb      31.32434006      38.84257229       0.00000000  F      -0.00107443       0.00057693      -0.00000000
Nb      32.99515166      40.49722987       1.65851325  F       0.00019606       0.00066632       0.00000000
Nb      31.31430179      42.14005253       0.00000000  F       0.00039584       0.00050041      -0.00000000
Nb      32.98265054      43.79095498       1.65851325  F      -0.00002587       0.00101536      -0.00000000
Nb      31.26827326      45.43132731      -0.00000000  F      -0.00021587       0.00029048       0.00000000
Nb      32.89581376      47.08133859       1.65851325  F      -0.00042967       0.00045200       0.00000000
Nb      31.14186713      48.72349924      -0.00000000  F       0.00054664       0.00090208       0.00000000
Nb      32.72552551      50.37610904       1.65851325  F      -0.00071193       0.00059940       0.00000000
Nb      30.95467684      52.02433601       0.00000000  F       0.00041278       0.00135607      -0.00000000
Nb      32.51264558      53.68059572       1.65851325  F      -0.00053741       0.00035179       0.00000000
Nb      30.74143683      55.33494603       0.00000000  F      -0.00051424       0.00070549      -0.00000000
Nb      35.59785750      57.00279442       1.65851325  F      -0.00046035       0.00080221       0.00000000
Nb      33.82778464      58.65894243       0.00000000  F      -0.00019996       0.00022983       0.00000000
Nb      35.36464820      60.32790730       1.65851325  F       0.00013119       0.00098500       0.00000000
Nb      33.61824304      61.98753130       0.00000000  F      -0.00087278      -0.00077714       0.00000000
Nb      35.17159476      63.66268802       1.65851325  F       0.00027880       0.00129591       0.00000000
Nb      33.46612920      65.32479670       0.00000000  F       0.00018859      -0.00055704      -0.00000000
Nb      35.05641681      67.00328222       1.65851325  F      -0.00007798       0.00114882      -0.00000000
Nb      33.39139309      68.66557004       0.00000000  F       0.00089330       0.00078868      -0.00000000
Nb      35.01507004      70.34302447       1.65851325  F       0.00131346       0.00079180      -0.00000000
Nb      33.36285485      72.00398967      -0.00000000  F       0.00045523      -0.00012254       0.00000000
Nb      34.99684172      73.67826382       1.65851325  F       0.00128434       0.00051308      -0.00000000
Nb      33.33749691      75.33696822      -0.00000000  F       0.00078523      -0.00056069       0.00000000
Nb      34.97267042      77.00916762       1.65851325  F       0.00016355       0.00053708      -0.00000000
Nb      33.31011756      78.66843753       0.00000000  T       0.00000000       0.00000000       0.00000000
Nb      34.94959884      80.33906848       1.65851325  T       0.00000000       0.00000000       0.00000000
Nb      33.29029112      81.99427393       0.00000000  T       0.00000000       0.00000000       0.00000000
Nb      34.93310993      83.66428489       1.65851325  T       0.00000000       0.00000000       0.00000000
Nb      33.27483132      85.31899560       0.00000000  T       0.00000000       0.00000000       0.00000000
Nb      34.92012135      86.98845430       1.65851325  T       0.00000000       0.00000000       0.00000000
Nb      33.26248423      88.64278742       0.00000000  T       0.00000000       0.00000000       0.00000000
Nb      34.90966189      90.31174793       1.65851325  T       0.00000000       0.00000000       0.00000000
Nb      33.25242715      91.96579365       0.00000000  T       0.00000000       0.00000000       0.00000000
Nb      36.42379686      17.35236286       1.65851325  T       0.00000000       0.00000000       0.00000000
Nb      34.75633363      19.00078247      -0.00000000  T       0.00000000       0.00000000       0.00000000
Nb      36.41649050      20.66429426       1.65851325  T       0.00000000       0.00000000       0.00000000
Nb      34.74774790      22.31224587      -0.00000000  T       0.00000000       0.00000000       0.00000000
Nb      36.40763917      23.97551881       1.65851325  T       0.00000000       0.00000000       0.00000000
Nb      34.73728495      25.62296250      -0.00000000  T       0.00000000       0.00000000       0.00000000
Nb      36.39673690      27.28591289       1.65851325  T       0.00000000       0.00000000       0.00000000
Nb      34.72430379      28.93279859      -0.00000000  T       0.00000000       0.00000000       0.00000000
Nb      36.38350579      30.59542385       1.65851325  F       0.00238200      -0.00031412       0.00000000
Nb      34.70590798      32.24219872       0.00000000  F       0.00120467      -0.00138986      -0.00000000
Nb      36.35526563      33.90139776       1.65851325  F       0.00038753       0.00017305       0.00000000
Nb      34.67685744      35.54815590       0.00000000  F       0.00015316       0.00097181       0.00000000
Nb      36.33485571      37.20737309       1.65851325  F      -0.00007926       0.00021843       0.00000000
Nb      34.66603054      38.85263856       0.00000000  F      -0.00048953       0.00127564      -0.00000000
Nb      36.34407731      40.50894854       1.65851325  F      -0.00046059       0.00061878       0.00000000
Nb      34.67310998      42.15055302       0.00000000  F      -0.00117657       0.00066673       0.00000000
Nb      36.34462504      43.80370011       1.65851325  F      -0.00025122       0.00091500       0.00000000
Nb      34.63319203      45.44209534       0.00000000  F      -0.00046743       0.00037243      -0.00000000
Nb      36.25598139      47.09384436       1.65851325  F      -0.00031446       0.00130551      -0.00000000
Nb      34.49542292      48.73322465       0.00000000  F      -0.00033558       0.00023871      -0.00000000
Nb      36.07031850      50.38677089       1.65851325  F      -0.00019341       0.00062777       0.00000000
Nb      34.28962083      52.03151100      -0.00000000  F       0.00062587       0.00086950       0.00000000
Nb      35.83970936      53.68895466       1.65851325  F      -0.00045706       0.00101081      -0.00000000
Nb      34.05967472      55.34002018       0.00000000  F      -0.00024024       0.00151595      -0.00000000
Nb      38.90709760      57.00704418       1.65851325  F       0.00029607      -0.00028571       0.00000000
Nb      37.12876545      58.66852742       0.00000000  F       0.00044391       0.00173764      -0.00000000
Nb      38.65499690      60.33742698       1.65851325  F      -0.00005419      -0.00075643      -0.00000000
Nb      36.90214018      62.00154501       0.00000000  F      -0.00050122       0.00025356      -0.00000000
Nb      38.44778352      63.67838068       1.65851325  F       0.00042517       0.00020365      -0.00000000
Nb      36.73979561      65.34213948       0.00000000  F      -0.00064586      -0.00092309      -0.00000000
Nb      38.33121200      67.02221938       1.65851325  F       0.00023387       0.00014164       0.00000000
Nb      36.66838374      68.68366236       0.00000000  F      -0.00033751      -0.00133108       0.00000000
Nb      38.29892667      70.36221681       1.65851325  F       0.00087686      -0.00029725      -0.00000000
Nb      36.65038364      72.02063022      -0.00000000  F       0.00046621      -0.00082846       0.00000000
Nb      38.29060683      73.69650551       1.65851325  F       0.00011826      -0.00009097      -0.00000000
Nb      36.63380269      75.35271889      -0.00000000  F       0.00094832      -0.00050394       0.00000000
Nb      38.27200878      77.02640155       1.65851325  F       0.00015593       0.00021852      -0.00000000
Nb      36.61049135      78.68162050      -0.00000000  F      -0.00061319       0.00003407       0.00000000
Nb      38.25076609      80.35398971       1.65851325  F       0.00016808       0.00072484       0.00000000
Nb      36.59135717      82.00983290       0.00000000  T       0.00000000       0.00000000       0.00000000
Nb      38.23507519      83.68074297       1.65851325  T       0.00000000       0.00000000       0.00000000
Nb      36.57765777      85.33442412       0.00000000  T       0.00000000       0.00000000       0.00000000
Nb      38.22371818      87.00469848       1.65851325  T       0.00000000       0.00000000       0.00000000
Nb      36.56676588      88.65803288       0.00000000  T       0.00000000       0.00000000       0.00000000
Nb      38.21461277      90.32773183       1.65851325  T       0.00000000       0.00000000       0.00000000
Nb      36.55792885      91.98081660       0.00000000  T       0.00000000       0.00000000       0.00000000
Nb      38.20717538      93.64998756       1.65851325  T       0.00000000       0.00000000       0.00000000
Nb      39.75115603      17.36869483       1.65851325  T       0.00000000       0.00000000       0.00000000
Nb      38.08426336      19.01644921      -0.00000000  T       0.00000000       0.00000000       0.00000000
Nb      39.74490540      20.68099812       1.65851325  T       0.00000000       0.00000000       0.00000000
Nb      38.07680494      22.32820012      -0.00000000  T       0.00000000       0.00000000       0.00000000
Nb      39.73730038      23.99256207       1.65851325  T       0.00000000       0.00000000       0.00000000
Nb      38.06767796      25.63916740      -0.00000000  T       0.00000000       0.00000000       0.00000000
Nb      39.73048446      27.30412961       1.65851325  F       0.00045258      -0.00006404       0.00000000
Nb      38.05887409      28.94986855      -0.00000000  F       0.00059243      -0.00190420      -0.00000000
Nb      39.71381788      30.61061945       1.65851325  F       0.00104308      -0.00065143       0.00000000
Nb      38.03490294      32.25569805       0.00000000  F       0.00166615       0.00017470      -0.00000000
Nb      39.68509336      33.91713419       1.65851325  F       0.00028696      -0.00104256      -0.00000000
Nb      38.00745251      35.56208246       0.00000000  F       0.00055089       0.00114832      -0.00000000
Nb      39.66928269      37.22202892       1.65851325  F       0.00008905      -0.00114291      -0.00000000
Nb      38.00601817      38.86614262       0.00000000  F      -0.00043526       0.00028948      -0.00000000
Nb      39.68996861      40.52267793       1.65851325  F      -0.00000405       0.00000659       0.00000000
Nb      38.02759654      42.16446038       0.00000000  F      -0.00039306       0.00009697      -0.00000000
Nb      39.70255235      43.81722723       1.65851325  F      -0.00022428      -0.00053540       0.00000000
Nb      37.99506869      45.45618739       0.00000000  F      -0.00032686       0.00004857      -0.00000000
Nb      39.61537025      47.10542854       1.65851325  F      -0.00003078      -0.00009238       0.00000000
Nb      37.84905238      48.74529834      -0.00000000  F      -0.00007423      -0.00026176       0.00000000
Nb      39.41775802      50.39374005       1.65851325  F       0.00065092       0.00035367       0.00000000
Nb      37.62663125      52.04037897      -0.00000000  F      -0.00003112       0.00054298       0.00000000
Nb      39.16877081      53.69246690       1.65851325  F       0.00088118       0.00021820      -0.00000000
Nb      37.37840413      55.34756580       0.00000000  F       0.00044705       0.00172252      -0.00000000
Nb      42.21558104      56.99178590       1.65851325  F      -0.00009221      -0.00095192      -0.00000000
Nb      40.42661205      58.66727994       0.00000000  F       0.00008909      -0.00198770      -0.00000000
Nb      41.93990051      60.32866899       1.65851325  F      -0.00071148      -0.00191987       0.00000000
Nb      40.18202674      62.00822737       0.00000000  F      -0.00084519      -0.00238306       0.00000000
Nb      41.72069077      63.67867074       1.65851325  F      -0.00072640      -0.00216743      -0.00000000
Nb      40.01330222      65.35536112       0.00000000  F      -0.00012518      -0.00211963       0.00000000
Nb      41.60810790      67.02751607       1.65851325  F      -0.00052753      -0.00078780       0.00000000
Nb      39.94858630      68.69924305       0.00000000  F       0.00027353      -0.00169179      -0.00000000
Nb      41.58546437      70.36949792       1.65851325  F       0.00066980       0.00026794      -0.00000000
Nb      39.94043671      72.03697718      -0.00000000  F       0.00025007      -0.00043475       0.00000000