503
Lattice="93.55123762572887 0.0 0.0 0.0 81.0177483393558 0.0 0.0 0.0 2.7562797713977907" Properties=species:S:1:pos:R:3:fix_mask:L:1:forces:R:3 energy=-5282.544592827755 pbc="T T T"
Mo      20.81596816      28.50796322      -0.27635190  T       0.00000000       0.00000000       0.00000000
Mo      19.51339914      30.75827999       0.60515571  T       0.00000000       0.00000000       0.00000000
Mo      18.20954595      33.00830422      -1.26869644  T       0.00000000       0.00000000       0.00000000
Mo      20.80954314      33.00844639      -0.34005912  T       0.00000000       0.00000000       0.00000000
Mo      19.50453845      35.25838040       0.54044505  T       0.00000000       0.00000000       0.00000000
Mo      18.19892104      37.50843468      -1.33339301  T       0.00000000       0.00000000       0.00000000
Mo      20.79833435      37.50847611      -0.41039468  T       0.00000000       0.00000000       0.00000000
Mo      16.89324596      39.75872287      -0.44861744  T       0.00000000       0.00000000       0.00000000
Mo      19.49207811      39.75872535       0.47112431  T       0.00000000       0.00000000       0.00000000
Mo      18.18625591      42.00925913       1.35569845  T       0.00000000       0.00000000       0.00000000
Mo      20.78449844      42.00927028       2.27231790  T       0.00000000       0.00000000       0.00000000
Mo      19.47901437      44.26005611       3.15738425  T       0.00000000       0.00000000       0.00000000
Mo      18.17466127      46.51094934       1.28984856  T       0.00000000       0.00000000       0.00000000
Mo      20.77205060      46.51106896       2.20049435  T       0.00000000       0.00000000       0.00000000
Mo      19.46875392      48.76197248       3.09090941  T       0.00000000       0.00000000       0.00000000
Mo      20.76397196      51.01284929       2.13448663  T       0.00000000       0.00000000       0.00000000
Mo      26.01160288      19.49880966      -1.04522298  T       0.00000000       0.00000000       0.00000000
Mo      28.60800065      19.49569141      -0.09891462  T       0.00000000       0.00000000       0.00000000
Mo      24.71458001      21.75256694      -0.16324534  T       0.00000000       0.00000000       0.00000000
Mo      27.31172595      21.75041403       0.78090914  T       0.00000000       0.00000000       0.00000000
Mo      26.01452869      24.00406623      -1.09675471  T       0.00000000       0.00000000       0.00000000
Mo      28.61188995      24.00210057      -0.15140365  T       0.00000000       0.00000000       0.00000000
Mo      23.41649207      24.00531611       0.71799597  T       0.00000000       0.00000000       0.00000000
Mo      22.11701136      26.25706227      -1.15736172  T       0.00000000       0.00000000       0.00000000
Mo      24.71591921      26.25652029      -0.21880987  T       0.00000000       0.00000000       0.00000000
Mo      27.31434370      26.25553990       0.72325950  T       0.00000000       0.00000000       0.00000000
Mo      26.01492316      28.50757720      -1.15888848  T       0.00000000       0.00000000       0.00000000
Mo      28.61386520      28.50691911      -0.21656025  T       0.00000000       0.00000000       0.00000000
Mo      23.41555949      28.50786974       0.65898735  T       0.00000000       0.00000000       0.00000000
Mo      22.11336558      30.75839050      -1.21912566  T       0.00000000       0.00000000       0.00000000
Mo      24.71333545      30.75845352      -0.28461518  T       0.00000000       0.00000000       0.00000000
Mo      27.31320972      30.75840174       0.65315377  T       0.00000000       0.00000000       0.00000000
Mo      26.00995586      33.00876618      -1.23277749  T       0.00000000       0.00000000       0.00000000
Mo      28.60907175      33.00817211      -0.29958825  F      -0.00000009       0.00000006      -0.00000004
Mo      23.40968303      33.00860399       0.59047851  T       0.00000000       0.00000000       0.00000000
Mo      22.10444605      35.25849401      -1.28918999  T       0.00000000       0.00000000       0.00000000
Mo      24.70455978      35.25863513      -0.36087482  T       0.00000000       0.00000000       0.00000000
Mo      27.30491823      35.25880950       0.56969242  T       0.00000000       0.00000000       0.00000000
Mo      25.99765711      37.50860263      -1.31771908  T       0.00000000       0.00000000       0.00000000
Mo      28.59619086      37.50813782      -0.39614792  F      -0.00000010       0.00000001       0.00000005
Mo      23.39789754      37.50853024       0.51348747  T       0.00000000       0.00000000       0.00000000
Mo      22.09094768      39.75872862      -1.36521617  T       0.00000000       0.00000000       0.00000000
Mo      24.68986720      39.75873305      -0.44501287  T       0.00000000       0.00000000       0.00000000
Mo      27.28744091      39.75854572       0.47283893  F      -0.00000006      -0.00000006       0.00000000
Mo      25.98070344      42.00930536       1.34776162  T       0.00000000       0.00000000       0.00000000
Mo      28.57689916      42.00930136       2.25844077  F      -0.00000029      -0.00000015      -0.00000003
Mo      23.38265725      42.00928509       3.18848558  T       0.00000000       0.00000000       0.00000000
Mo      22.07665601      44.26012520       1.31411407  T       0.00000000       0.00000000       0.00000000
Mo      24.67410422      44.26021505       2.22587523  T       0.00000000       0.00000000       0.00000000
Mo      27.27064701      44.26056786       3.13450123  F      -0.00000003      -0.00000012       0.00000003
Mo      25.96626154      46.51138489       1.26016497  T       0.00000000       0.00000000       0.00000000
Mo      28.56208183      46.51169472       2.16337315  F      -0.00000025       0.00000005       0.00000000
Mo      23.36925893      46.51121326       3.10953224  T       0.00000000       0.00000000       0.00000000
Mo      22.06598609      48.76211981       1.24179171  T       0.00000000       0.00000000       0.00000000
Mo      24.66311754      48.76226430       2.14667063  T       0.00000000       0.00000000       0.00000000
Mo      27.26019720      48.76237348       3.04855159  T       0.00000000       0.00000000       0.00000000
Mo      25.95891823      51.01282908       1.18255363  T       0.00000000       0.00000000       0.00000000
Mo      28.55669913      51.01253415       2.07947700  T       0.00000000       0.00000000       0.00000000
Mo      23.36139520      51.01289461       3.03811915  T       0.00000000       0.00000000       0.00000000
Mo      22.06067389      53.26328312       1.17731181  T       0.00000000       0.00000000       0.00000000
Mo      24.65865253      53.26300095       2.07749067  T       0.00000000       0.00000000       0.00000000
Mo      27.25700369      53.26239649       2.97419993  T       0.00000000       0.00000000       0.00000000
Mo      25.95783184      55.51207757       1.11674005  T       0.00000000       0.00000000       0.00000000
Mo      28.55726938      55.51057724       2.00976571  T       0.00000000       0.00000000       0.00000000
Mo      23.35901959      55.51296715       2.97610527  T       0.00000000       0.00000000       0.00000000
Mo      24.65893740      57.76166686       2.01873607  T       0.00000000       0.00000000       0.00000000
Mo      27.25869697      57.75991502       2.91269546  T       0.00000000       0.00000000       0.00000000
Mo      25.96015111      60.00929176       1.06191798  T       0.00000000       0.00000000       0.00000000
Mo      28.56078344      60.00653560       1.95336290  T       0.00000000       0.00000000       0.00000000
Mo      27.26225502      62.25592845       2.86237900  T       0.00000000       0.00000000       0.00000000
Mo      33.79521091      14.97900483      -0.91230714  T       0.00000000       0.00000000       0.00000000
Mo      36.39066786      14.97310082       0.04249469  T       0.00000000       0.00000000       0.00000000
Mo      31.19974829      14.98438400       0.89209475  T       0.00000000       0.00000000       0.00000000
Mo      29.90386555      17.24021212      -0.98046550  T       0.00000000       0.00000000       0.00000000
Mo      32.49931098      17.23525437      -0.02909472  T       0.00000000       0.00000000       0.00000000
Mo      35.09447826      17.22938626       0.92587998  T       0.00000000       0.00000000       0.00000000
Mo      33.79892125      19.48619591      -0.95076955  T       0.00000000       0.00000000       0.00000000
Mo      36.39373406      19.47974234       0.00794020  T       0.00000000       0.00000000       0.00000000
Mo      31.20374964      19.49153073       0.85119893  T       0.00000000       0.00000000       0.00000000
Mo      29.90813619      21.74731628      -1.02728904  T       0.00000000       0.00000000       0.00000000
Mo      32.50373942      21.74299337      -0.07463000  T       0.00000000       0.00000000       0.00000000
Mo      35.09859435      21.73723028       0.88318915  T       0.00000000       0.00000000       0.00000000
Mo      33.80386350      23.99463675      -1.00208803  T       0.00000000       0.00000000       0.00000000
Mo      36.39810052      23.98814668      -0.04074565  F      -0.00000004       0.00000037       0.00000006
Mo      31.20838319      23.99909020       0.79860071  T       0.00000000       0.00000000       0.00000000
Mo      29.91204729      26.25384673      -1.08653516  T       0.00000000       0.00000000       0.00000000
Mo      32.50874193      26.25102459      -0.13449239  T       0.00000000       0.00000000       0.00000000
Mo      35.10409952      26.24604202       0.82343924  F      -0.00000022      -0.00000042       0.00000002
Mo      33.80863983      28.50185137      -1.07411297  F      -0.00000002      -0.00000049      -0.00000021
Mo      36.40366372      28.49713076      -0.11169314  F       0.00000027       0.00000032       0.00000018
Mo      31.21151678      28.50466162       0.72901780  F       0.00000007       0.00000044      -0.00000020
Mo      29.91193045      30.75712068      -1.16413162  F      -0.00000040      -0.00000034       0.00000002
Mo      32.51030583      30.75542315      -0.21870895  F       0.00000004      -0.00000054      -0.00000008
Mo      35.10731266      30.75278081       0.73578887  F       0.00000035      -0.00000042      -0.00000007
Mo      33.80689431      33.00565831      -1.17561804  F       0.00000010       0.00000012      -0.00000025
Mo      36.40507277      33.00389509      -0.22130933  F       0.00000010       0.00000005       0.00000009
Mo      31.20847444      33.00706725       0.63690670  F      -0.00000021       0.00000007      -0.00000013
Mo      29.90360109      35.25771633      -1.26005652  F      -0.00000030       0.00000013      -0.00000010
Mo      32.50203410      35.25675834      -0.32780543  F      -0.00000003       0.00000022      -0.00000006
Mo      35.10103419      35.25594256       0.61163903  F      -0.00000024      -0.00000015      -0.00000002
Mo      33.79186257      37.50677445      -1.30353570  F      -0.00000042       0.00000003       0.00000010
Mo      36.39038423      37.50619473      -0.37213774  F      -0.00000022      -0.00000062      -0.00000008
Mo      31.19372821      37.50744071       0.52653974  F       0.00000012      -0.00000020       0.00000038
Mo      29.88442239      39.75824668      -1.36766766  F       0.00000010       0.00000026       0.00000047
Mo      32.48087040      39.75784826      -0.45137236  F      -0.00000012       0.00000001       0.00000029
Mo      35.07711494      39.75757740       0.46603112  F      -0.00000016      -0.00000053       0.00000006
Mo      33.76668500      42.00942048       1.32020682  F       0.00000006      -0.00000007       0.00000006
Mo      36.36082455      42.00986269       2.22677465  F       0.00000004       0.00000011      -0.00000004
Mo      31.17183514      42.00927135       3.16801320  F      -0.00000035       0.00000000       0.00000012
Mo      29.86600408      44.26056599       1.28394410  F       0.00000003       0.00000003      -0.00000005
Mo      32.46039241      44.26105838       2.18708070  F       0.00000001      -0.00000002       0.00000005
Mo      35.05462264      44.26169948       3.08699895  F       0.00000030      -0.00000033      -0.00000012
Mo      33.75259749      46.51252896       1.20369770  F       0.00000023       0.00000013      -0.00000015
Mo      36.34792126      46.51328783       2.09488984  F      -0.00000010      -0.00000015      -0.00000000
Mo      31.15769136      46.51192617       3.06351421  F      -0.00000056      -0.00000008      -0.00000016
Mo      29.85648215      48.76249740       1.19070544  F      -0.00000009      -0.00000005      -0.00000010
Mo      32.45302458      48.76230926       2.08550796  F       0.00000011       0.00000014      -0.00000007
Mo      35.04954375      48.76248032       2.97535047  F      -0.00000028       0.00000000       0.00000003
Mo      33.75222052      51.01085828       1.10695581  F      -0.00000028      -0.00000009       0.00000013
Mo      36.35105112      51.00971140       1.99047033  F      -0.00000001      -0.00000003      -0.00000023
Mo      31.15401042      51.01181277       2.97361716  F      -0.00000009       0.00000011       0.00000009
Mo      29.85597084      53.26122906       1.11019455  T       0.00000000       0.00000000       0.00000000
Mo      32.45477771      53.25944761       2.00014070  F      -0.00000030       0.00000012       0.00000010
Mo      35.05484277      53.25690849       2.88479792  F      -0.00000030       0.00000019       0.00000024
Mo      33.75794350      55.50465630       1.02719579  F       0.00000023      -0.00000038       0.00000028
Mo      36.35983746      55.50006226       1.90713119  F      -0.00000011       0.00000010       0.00000001
Mo      31.15757674      55.50812629       2.89794587  T       0.00000000       0.00000000       0.00000000
Mo      29.85922097      57.75726745       1.04625767  T       0.00000000       0.00000000       0.00000000
Mo      32.46065407      57.75338023       1.93116479  T       0.00000000       0.00000000       0.00000000
Mo      35.06303005      57.74791098       2.81030507  T       0.00000000       0.00000000       0.00000000
Mo      33.76425930      59.99757523       0.96709369  T       0.00000000       0.00000000       0.00000000
Mo      36.36691204      59.99108414       1.84469563  T       0.00000000       0.00000000       0.00000000
Mo      31.16215687      60.00270456       2.84070237  T       0.00000000       0.00000000       0.00000000
Mo      29.86353462      62.25219453       0.99559367  T       0.00000000       0.00000000       0.00000000
Mo      32.46538759      62.24738320       1.88124141  T       0.00000000       0.00000000       0.00000000
Mo      35.06766122      62.24147490       2.76278092  T       0.00000000       0.00000000       0.00000000
Mo      33.76839762      64.49188203       0.92470137  T       0.00000000       0.00000000       0.00000000
Mo      36.37045903      64.48574975       1.80610364  T       0.00000000       0.00000000       0.00000000
Mo      31.16643953      64.49730140       2.79618914  T       0.00000000       0.00000000       0.00000000
Mo      32.46912433      66.74230199       1.84298971  T       0.00000000       0.00000000       0.00000000
Mo      35.07090111      66.73669884       2.72767527  T       0.00000000       0.00000000       0.00000000
Mo      37.68752777      12.71764690      -0.84461859  T       0.00000000       0.00000000       0.00000000
Mo      40.28377624      12.71246246       0.11131674  T       0.00000000       0.00000000       0.00000000
Mo      42.88047382      12.70819200       1.06872299  T       0.00000000       0.00000000       0.00000000
Mo      41.58251843      14.96166837      -0.79672230  T       0.00000000       0.00000000       0.00000000
Mo      44.17919883      14.95749113       0.16447365  T       0.00000000       0.00000000       0.00000000
Mo      38.98636779      14.96711149       0.99993938  T       0.00000000       0.00000000       0.00000000
Mo      37.68964574      17.22290507      -0.87192400  T       0.00000000       0.00000000       0.00000000
Mo      40.28513596      17.21640762       0.08966518  T       0.00000000       0.00000000       0.00000000
Mo      42.88119666      17.21074977       1.05371935  T       0.00000000       0.00000000       0.00000000
Mo      41.58381830      19.46550304      -0.81867507  T       0.00000000       0.00000000       0.00000000
Mo      44.17980369      19.45973938       0.15080635  T       0.00000000       0.00000000       0.00000000
Mo      38.98855757      19.47256615       0.97091579  T       0.00000000       0.00000000       0.00000000
Mo      37.69297436      21.73006355      -0.90978784  T       0.00000000       0.00000000       0.00000000
Mo      40.28699218      21.72217042       0.05826992  F       0.00000035      -0.00000058      -0.00000014
Mo      42.88122011      21.71395992       1.03043508  F       0.00000047      -0.00000030       0.00000002
Mo      41.58460891      23.97105979      -0.85350830  F      -0.00000025       0.00000020      -0.00000020
Mo      44.17879039      23.96203268       0.12564859  F      -0.00000031       0.00000030      -0.00000022
Mo      38.99160486      23.98052125       0.92804301  F      -0.00000006       0.00000006      -0.00000005
Mo      37.69764014      26.23913701      -0.96594342  F      -0.00000013       0.00000005       0.00000002
Mo      40.29017365      26.23016983       0.00955515  F       0.00000032       0.00000010      -0.00000015
Mo      42.88251999      26.21897699       0.99258148  F       0.00000048       0.00000019      -0.00000014
Mo      41.58916634      28.48032489      -0.90993818  F      -0.00000019       0.00000065      -0.00000014
Mo      44.18046096      28.46664503       0.08468164  F      -0.00000006       0.00000092       0.00000015
Mo      38.99723005      28.49040541       0.86170700  F      -0.00000010       0.00000007      -0.00000003
Mo      37.70319132      30.74889696      -1.05393490  F       0.00000052      -0.00000029       0.00000028
Mo      40.29702443      30.74216116      -0.07229394  F      -0.00000025       0.00000038       0.00000014
Mo      42.88837509      30.73088727       0.92540238  F       0.00000030       0.00000010      -0.00000017
Mo      41.59692196      32.99435820      -1.01581530  F      -0.00000014       0.00000054       0.00000004
Mo      44.18825076      32.98237930       0.00162775  F       0.00000050       0.00000009      -0.00000018
Mo      39.00209779      33.00076104       0.74855102  F      -0.00000004      -0.00000007       0.00000040
Mo      37.70008510      35.25477902      -1.19421889  F      -0.00000014       0.00000012       0.00000004
Mo      40.29861740      35.25253900      -0.22525044  F       0.00000018       0.00000021       0.00000022
Mo      42.89539574      35.24683686       0.77617876  F      -0.00000043       0.00000045       0.00000007
Mo      41.58949360      37.50381031      -1.23123735  F       0.00000043       0.00000010       0.00000021
Mo      44.18933169      37.49962692      -0.23498078  F       0.00000017       0.00000019      -0.00000011
Mo      38.98961785      37.50542191       0.56790259  F       0.00000028      -0.00000041       0.00000006
Mo      37.67307777      39.75744285      -1.37155307  F       0.00000009       0.00000037       0.00000015
Mo      40.26868929      39.75747899      -0.45081322  F      -0.00000012       0.00000003       0.00000002
Mo      42.86338426      39.75667725       0.47468210  F       0.00000041       0.00000025      -0.00000018
Mo      41.54616085      42.01209559       1.27059112  F      -0.00000016       0.00000022      -0.00000037
Mo      44.13851783      42.01649190       2.15421657  F       0.00000034      -0.00000024       0.00000000
Mo      38.95419279      42.01086855       3.12979479  F       0.00000002      -0.00000047       0.00000011
Mo      37.64836124      44.26290237       1.22558542  F      -0.00000085      -0.00000043      -0.00000009
Mo      40.24184269      44.26457960       2.11187357  F      -0.00000004       0.00000010       0.00000014
Mo      42.83578526      44.26782323       2.98319109  F       0.00000018       0.00000017       0.00000013
Mo      41.54208951      46.51468043       1.09092209  F      -0.00000029      -0.00000009      -0.00000021
Mo      44.14754378      46.50939559       1.93695810  F       0.00000013       0.00000000       0.00000014
Mo      38.94391986      46.51419009       2.97787711  F      -0.00000010       0.00000032       0.00000003
Mo      37.64741608      48.76224731       1.10170423  F       0.00000032       0.00000009      -0.00000002
Mo      40.24754527      48.76074268       1.97334320  F      -0.00000029       0.00000059      -0.00000005
Mo      42.85241791      48.75471870       2.82767726  F      -0.00000017       0.00000021       0.00000005
Mo      41.55650173      51.00069986       0.97116208  F       0.00000010      -0.00000031      -0.00000009
Mo      44.16427747      50.98812599       1.81424679  F       0.00000006      -0.00000005       0.00000010
Mo      38.95218292      51.00696597       2.86528296  F       0.00000041      -0.00000033      -0.00000019
Mo      37.65615515      53.25351544       1.00637513  F       0.00000018       0.00000005      -0.00000007
Mo      40.25986464      53.24737332       1.87501800  F      -0.00000015      -0.00000005      -0.00000022
Mo      42.86569773      53.23733967       2.73095999  F       0.00000016       0.00000010      -0.00000030
Mo      41.56714743      55.48604222       0.88948060  F       0.00000043      -0.00000007      -0.00000014
Mo      44.17155490      55.47693978       1.74451070  F       0.00000023       0.00000002      -0.00000007
Mo      38.96269608      55.49449728       2.78084887  F      -0.00000019      -0.00000032      -0.00000012
Mo      37.66509477      57.74240498       0.93219734  F      -0.00000042       0.00000022       0.00000018
Mo      40.26873955      57.73428292       1.80277350  F      -0.00000000      -0.00000008      -0.00000004
Mo      42.87215138      57.72639781       2.66764810  F       0.00000023      -0.00000007      -0.00000005
Mo      41.57217491      59.97579643       0.82879523  T       0.00000000       0.00000000       0.00000000
Mo      44.17384372      59.97088868       1.69969755  F       0.00000014      -0.00000018       0.00000026
Mo      38.96972606      59.98353574       2.71718957  T       0.00000000       0.00000000       0.00000000
Mo      37.67006264      62.23470591       0.88392217  T       0.00000000       0.00000000       0.00000000
Mo      40.27220481      62.22768501       1.75757023  T       0.00000000       0.00000000       0.00000000
Mo      42.87374738      62.22139416       2.62815879  T       0.00000000       0.00000000       0.00000000
Mo      41.57374419      64.47338281       0.80370723  T       0.00000000       0.00000000       0.00000000
Mo      44.17456283      64.46871644       1.67738737  T       0.00000000       0.00000000       0.00000000
Mo      38.97233190      64.47934771       2.68436429  T       0.00000000       0.00000000       0.00000000
Mo      37.67253787      66.73082844       0.85342695  T       0.00000000       0.00000000       0.00000000
Mo      40.27381659      66.72521321       1.73317044  T       0.00000000       0.00000000       0.00000000
Mo      42.87460398      66.72050566       2.61113792  T       0.00000000       0.00000000       0.00000000
Mo      41.57469803      68.97225870       0.78612557  T       0.00000000       0.00000000       0.00000000
Mo      44.17501414      68.96879339       1.66652310  T       0.00000000       0.00000000       0.00000000
Mo      38.97395562      68.97689046       2.66084672  T       0.00000000       0.00000000       0.00000000
Mo      45.47758414      12.70536993      -0.72917418  T       0.00000000       0.00000000       0.00000000
Mo      48.07494156      12.70438230       0.22968998  T       0.00000000       0.00000000       0.00000000
Mo      50.67229898      12.70536993       1.18855414  T       0.00000000       0.00000000       0.00000000
Mo      49.37357700      14.95521560      -0.66722818  T       0.00000000       0.00000000       0.00000000
Mo      51.97068429      14.95749113       0.29490631  T       0.00000000       0.00000000       0.00000000
Mo      46.77630612      14.95521560       1.12660814  T       0.00000000       0.00000000       0.00000000
Mo      45.47787063      17.20686289      -0.73684555  T       0.00000000       0.00000000       0.00000000
Mo      48.07494156      17.20547533       0.22968998  T       0.00000000       0.00000000       0.00000000
Mo      50.67201248      17.20686289       1.19622551  T       0.00000000       0.00000000       0.00000000
Mo      49.37341364      19.45647663      -0.66259064  T       0.00000000       0.00000000       0.00000000
Mo      51.97007943      19.45973938       0.30857362  T       0.00000000       0.00000000       0.00000000
Mo      46.77646947      19.45647663       1.12197061  T       0.00000000       0.00000000       0.00000000
Mo      45.47699045      21.70805949      -0.75090808  F      -0.00000017      -0.00000008      -0.00000005
Mo      48.07364368      21.70552526       0.22532583  F      -0.00000044      -0.00000033      -0.00000001
Mo      50.67064826      21.70724820       1.20176193  F       0.00000002      -0.00000079      -0.00000028
Mo      49.37167568      23.95520118      -0.66628595  F      -0.00000032       0.00000026      -0.00000002
Mo      51.96875390      23.95909019       0.31612065  F      -0.00000049       0.00000031      -0.00000025
Mo      46.77464861      23.95623924       1.10732504  F       0.00000004       0.00000024      -0.00000011
Mo      45.47653132      26.20884240      -0.77568357  F      -0.00000016       0.00000003       0.00000003
Mo      48.07289143      26.20367392       0.21479049  F      -0.00000018      -0.00000006       0.00000040
Mo      50.67030255      26.20495500       1.20570585  F      -0.00000008       0.00000006       0.00000012
Mo      49.37183472      28.45181002      -0.66899696  F      -0.00000021      -0.00000008       0.00000002
Mo      51.96912844      28.45730607       0.33249675  F       0.00000015       0.00000033      -0.00000003
Mo      46.77459658      28.45523685       1.08490644  F      -0.00000051       0.00000015       0.00000023
Mo      45.47812843      30.71333801      -0.81877047  F      -0.00000024       0.00000006       0.00000016
Mo      48.07296558      30.70078089       0.19903555  F       0.00000029       0.00000045       0.00000011
Mo      50.67141237      30.70191111       1.21769306  F      -0.00000043      -0.00000040       0.00000008
Mo      49.37236512      32.94617433      -0.66777787  F      -0.00000047      -0.00000084      -0.00000003
Mo      51.97004788      32.95891900       0.37313605  F       0.00000025      -0.00000017       0.00000002
Mo      46.77564885      32.95912572       1.04381713  F      -0.00000014      -0.00000036       0.00000012
Mo      45.48737423      35.23660505      -0.93230094  F       0.00000021       0.00000017      -0.00000024
Mo      48.07251371      35.20317060       0.17074868  F       0.00000010       0.00000017      -0.00000024
Mo      50.67051054      35.20186936       1.25812240  F      -0.00000043       0.00000067      -0.00000000
Mo      49.37978906      37.44227853      -0.61739390  F       0.00000056      -0.00000006      -0.00000011
Mo      51.96986673      37.47682567       0.50754447  F      -0.00000043      -0.00000051      -0.00000008
Mo      46.78870230      37.49125423       0.85803808  F      -0.00000031       0.00000045       0.00000001
Mo      45.45860438      39.75438886      -1.34762946  F      -0.00000022       0.00000039      -0.00000052
Mo      48.05269859      39.77506220      -0.35509856  F      -0.00000008       0.00000017      -0.00000047
Mo      50.65199591      39.71363899       1.49194157  F       0.00000008      -0.00000044       0.00000031
Mo      49.40609098      41.99451976       0.56483397  F      -0.00000036       0.00000037       0.00000020
Mo      52.01239642      42.02278296       1.18462199  F       0.00000045       0.00000053      -0.00000060
Mo      46.72559692      42.01568590       3.02726943  F      -0.00000039       0.00000025       0.00000006
Mo      45.44120628      44.26522345       1.06564503  F       0.00000022      -0.00000034       0.00000023
Mo      48.06573374      44.23327509       1.75901620  F      -0.00000013      -0.00000012       0.00000020
Mo      50.68928118      44.25055082       2.32098752  F       0.00000091      -0.00000034      -0.00000014
Mo      49.37404742      46.47885703       0.66840347  F       0.00000018      -0.00000002       0.00000005
Mo      51.99049008      46.49756192       1.38451364  F       0.00000014      -0.00000003      -0.00000024
Mo      46.76480222      46.48659213       2.72033738  F       0.00000016      -0.00000035       0.00000011
Mo      45.46325601      48.73777718       0.89432592  F       0.00000007      -0.00000015       0.00000006
Mo      48.07120782      48.72560787       1.67342278  F       0.00000033       0.00000016       0.00000004
Mo      50.67848529      48.72824097       2.42810995  F      -0.00000013      -0.00000021      -0.00000005
Mo      49.37542797      50.97180427       0.67184995  F       0.00000002      -0.00000039      -0.00000018
Mo      51.98048535      50.97941856       1.46979242  F       0.00000009       0.00000027      -0.00000032
Mo      46.77070423      50.97567632       2.63277574  F      -0.00000007      -0.00000011       0.00000021
Mo      45.47104212      53.22652915       0.81538054  F       0.00000034      -0.00000009       0.00000000
Mo      48.07450704      53.22001949       1.64026108  F       0.00000005      -0.00000003      -0.00000015
Mo      50.67721508      53.22165260       2.45822675  F       0.00000020       0.00000000      -0.00000046