1208
Lattice="119.55173308782403 0.0 0.0 0.0 112.90997013850048 0.0 0.0 0.0 3.3208814746617787" Properties=species:S:1:pos:R:3:fix_mask:L:1:forces:R:3 energy=-12040.965880097248 pbc="T T T"
Nb      16.37221778      43.92518575       1.66044074  T       0.00000000       0.00000000       0.00000000
Nb      16.30186414      47.23610764       1.66044074  T       0.00000000       0.00000000       0.00000000
Nb      14.58153006      48.88900328       0.00000000  T       0.00000000       0.00000000       0.00000000
Nb      16.18559906      50.54561473       1.66044074  T       0.00000000       0.00000000       0.00000000
Nb      14.43006987      52.19876095       0.00000000  T       0.00000000       0.00000000       0.00000000
Nb      15.98886680      53.85577812       1.66044074  T       0.00000000       0.00000000       0.00000000
Nb      14.19241329      55.51200323       0.00000000  T       0.00000000       0.00000000       0.00000000
Nb      19.02794808      57.17549353       1.66044074  T       0.00000000       0.00000000       0.00000000
Nb      17.23110187      58.83754820       0.00000000  T       0.00000000       0.00000000       0.00000000
Nb      18.76698185      60.50445981       1.66044074  T       0.00000000       0.00000000       0.00000000
Nb      17.02717361      62.16894839       0.00000000  T       0.00000000       0.00000000       0.00000000
Nb      18.61022755      63.83730202       1.66044074  T       0.00000000       0.00000000       0.00000000
Nb      16.90827264      65.50119446       0.00000000  T       0.00000000       0.00000000       0.00000000
Nb      18.52031753      67.16916901       1.66044074  T       0.00000000       0.00000000       0.00000000
Nb      18.46492283      70.49935639       1.66044074  T       0.00000000       0.00000000       0.00000000
Nb      19.78168301      37.30433911       1.66044074  T       0.00000000       0.00000000       0.00000000
Nb      18.10152111      38.95860673       0.00000000  T       0.00000000       0.00000000       0.00000000
Nb      19.75199417      40.61788882       1.66044074  T       0.00000000       0.00000000       0.00000000
Nb      18.06488457      42.27161259       0.00000000  T       0.00000000       0.00000000       0.00000000
Nb      19.70874126      43.93012290       1.66044074  T       0.00000000       0.00000000       0.00000000
Nb      18.01000052      45.58318343       0.00000000  T       0.00000000       0.00000000       0.00000000
Nb      19.64119353      47.24068835       1.66044074  T       0.00000000       0.00000000       0.00000000
Nb      17.92155928      48.89308008       0.00000000  T       0.00000000       0.00000000       0.00000000
Nb      19.52679732      50.54950635       1.66044074  T       0.00000000       0.00000000       0.00000000
Nb      17.76925312      52.20194864       0.00000000  T       0.00000000       0.00000000       0.00000000
Nb      19.32460973      53.85854496       1.66044074  T       0.00000000       0.00000000       0.00000000
Nb      17.51897741      55.51422061       0.00000000  T       0.00000000       0.00000000       0.00000000
Nb      22.34294089      57.17795040       1.66044074  T       0.00000000       0.00000000       0.00000000
Nb      20.53698679      58.84033462       0.00000000  T       0.00000000       0.00000000       0.00000000
Nb      22.06710181      60.50804714       1.66044074  T       0.00000000       0.00000000       0.00000000
Nb      20.32724315      62.17287195       0.00000000  T       0.00000000       0.00000000       0.00000000
Nb      21.91039287      63.84186619       1.66044074  T       0.00000000       0.00000000       0.00000000
Nb      20.21038097      65.50581037       0.00000000  T       0.00000000       0.00000000       0.00000000
Nb      21.82363252      67.17422928       1.66044074  T       0.00000000       0.00000000       0.00000000
Nb      20.14204421      68.83700441       0.00000000  T       0.00000000       0.00000000       0.00000000
Nb      21.77111756      70.50466715       1.66044074  T       0.00000000       0.00000000       0.00000000
Nb      20.09852013      72.16652278       0.00000000  T       0.00000000       0.00000000       0.00000000
Nb      21.73653165      73.83354956       1.66044074  T       0.00000000       0.00000000       0.00000000
Nb      20.06873701      75.49472237       0.00000000  T       0.00000000       0.00000000       0.00000000
Nb      21.71222338      77.16124706       1.66044074  T       0.00000000       0.00000000       0.00000000
Nb      23.14915553      30.68023102       1.66044074  T       0.00000000       0.00000000       0.00000000
Nb      21.47697465      32.33502013       0.00000000  T       0.00000000       0.00000000       0.00000000
Nb      23.13409606      33.99554996       1.66044074  T       0.00000000       0.00000000       0.00000000
Nb      21.45903108      35.64997881       0.00000000  T       0.00000000       0.00000000       0.00000000
Nb      23.11409787      37.31005365       1.66044074  T       0.00000000       0.00000000       0.00000000
Nb      21.43476045      38.96402802       0.00000000  T       0.00000000       0.00000000       0.00000000
Nb      23.08637230      40.62350059       1.66044074  T       0.00000000       0.00000000       0.00000000
Nb      21.40030710      42.27689343       0.00000000  T       0.00000000       0.00000000       0.00000000
Nb      23.04569191      43.93555055       1.66044074  T       0.00000000       0.00000000       0.00000000
Nb      21.34819890      45.58820802       0.00000000  T       0.00000000       0.00000000       0.00000000
Nb      22.98134544      47.24576306       1.66044074  T       0.00000000       0.00000000       0.00000000
Nb      21.26272712      48.89760538       0.00000000  T       0.00000000       0.00000000       0.00000000
Nb      22.86960518      50.55386301       1.66044074  T       0.00000000       0.00000000       0.00000000
Nb      21.11037054      52.20550801       0.00000000  T       0.00000000       0.00000000       0.00000000
Nb      22.66243141      53.86162159       1.66044074  T       0.00000000       0.00000000       0.00000000
Nb      20.84643678      55.51662561       0.00000000  T       0.00000000       0.00000000       0.00000000
Nb      25.65683691      57.18063796       1.66044074  T       0.00000000       0.00000000       0.00000000
Nb      23.84066842      58.84343580       0.00000000  T       0.00000000       0.00000000       0.00000000
Nb      25.36490713      60.51209759       1.66044074  T       0.00000000       0.00000000       0.00000000
Nb      23.62564023      62.17726928       0.00000000  T       0.00000000       0.00000000       0.00000000
Nb      25.20935327      63.84697001       1.66044074  T       0.00000000       0.00000000       0.00000000
Nb      23.51165876      65.51092625       0.00000000  T       0.00000000       0.00000000       0.00000000
Nb      25.12636632      67.17982964       1.66044074  T       0.00000000       0.00000000       0.00000000
Nb      23.44666943      68.84246683       0.00000000  T       0.00000000       0.00000000       0.00000000
Nb      25.07700855      70.51050820       1.66044074  T       0.00000000       0.00000000       0.00000000
Nb      23.40579483      72.17216319       0.00000000  T       0.00000000       0.00000000       0.00000000
Nb      25.04479343      73.83951695       1.66044074  T       0.00000000       0.00000000       0.00000000
Nb      23.37801666      75.50046069       0.00000000  T       0.00000000       0.00000000       0.00000000
Nb      25.02226776      77.16728444       1.66044074  T       0.00000000       0.00000000       0.00000000
Nb      23.35801444      78.82770191       0.00000000  T       0.00000000       0.00000000       0.00000000
Nb      25.00569137      80.49411223       1.66044074  T       0.00000000       0.00000000       0.00000000
Nb      26.48969421      27.37063795       1.66044074  T       0.00000000       0.00000000       0.00000000
Nb      24.81999265      29.02542980       0.00000000  T       0.00000000       0.00000000       0.00000000
Nb      26.47893297      30.68658687       1.66044074  T       0.00000000       0.00000000       0.00000000
Nb      24.80728941      32.34107757       0.00000000  T       0.00000000       0.00000000       0.00000000
Nb      26.46508584      34.00187696       1.66044074  T       0.00000000       0.00000000       0.00000000
Nb      24.79069754      35.65599350       0.00000000  T       0.00000000       0.00000000       0.00000000
Nb      26.44664724      37.31632777       1.66044074  T       0.00000000       0.00000000       0.00000000
Nb      24.76817876      38.96996814       0.00000000  T       0.00000000       0.00000000       0.00000000
Nb      26.42097802      40.62968010       1.66044074  T       0.00000000       0.00000000       0.00000000
Nb      24.73604027      42.28270121       0.00000000  T       0.00000000       0.00000000       0.00000000
Nb      26.37634216      43.93061523       1.66044074  F      -0.00040763       0.00055239       0.00000000
Nb      24.68698113      45.59376763       0.00000000  T       0.00000000       0.00000000       0.00000000
Nb      26.30640065      47.23740129       1.66044074  F      -0.00024250      -0.00001253       0.00000000
Nb      24.58408255      48.89150182       0.00000000  F       0.00034553      -0.00007755      -0.00000000
Nb      26.17087562      50.54861849       1.66044074  F      -0.00029446       0.00023004      -0.00000000
Nb      24.41938928      52.20601704      -0.00000000  F       0.00008882       0.00016741       0.00000000
Nb      25.95201961      53.87209439       1.66044074  F      -0.00016324       0.00036853       0.00000000
Nb      24.15441264      55.52771561       0.00000000  F      -0.00013269      -0.00005686      -0.00000000
Nb      28.96897747      57.21842885       1.66044074  F       0.00028183      -0.00027428       0.00000000
Nb      27.16258191      58.86750987      -0.00000000  F       0.00007132      -0.00003238       0.00000000
Nb      28.69768641      60.53642239       1.66044074  F      -0.00001085      -0.00017689      -0.00000000
Nb      26.93398817      62.18567769      -0.00000000  F       0.00006134       0.00014483       0.00000000
Nb      28.51957571      63.85570132       1.66044074  F      -0.00027466      -0.00011373       0.00000000
Nb      26.81210778      65.51663353       0.00000000  T       0.00000000       0.00000000       0.00000000
Nb      28.42568226      67.18541030       1.66044074  F       0.00037422      -0.00000451       0.00000000
Nb      26.75088754      68.84851084       0.00000000  T       0.00000000       0.00000000       0.00000000
Nb      28.38261227      70.51697705       1.66044074  T       0.00000000       0.00000000       0.00000000
Nb      26.71284972      72.17837430       0.00000000  T       0.00000000       0.00000000       0.00000000
Nb      28.35289528      73.84610124       1.66044074  T       0.00000000       0.00000000       0.00000000
Nb      26.68716830      75.50676075       0.00000000  T       0.00000000       0.00000000       0.00000000
Nb      28.33221725      77.17392987       1.66044074  T       0.00000000       0.00000000       0.00000000
Nb      26.66874833      78.83405059       0.00000000  T       0.00000000       0.00000000       0.00000000
Nb      28.31704699      80.50078927       1.66044074  T       0.00000000       0.00000000       0.00000000
Nb      26.65492751      82.16050345       0.00000000  T       0.00000000       0.00000000       0.00000000
Nb      28.30546546      83.82690095       1.66044074  T       0.00000000       0.00000000       0.00000000
Nb      26.64419266      85.48629967       0.00000000  T       0.00000000       0.00000000       0.00000000
Nb      28.29634656      87.15241983       1.66044074  T       0.00000000       0.00000000       0.00000000
Nb      29.82633174      24.06116906       1.66044074  T       0.00000000       0.00000000       0.00000000
Nb      28.15842830      25.71587709       0.00000000  T       0.00000000       0.00000000       0.00000000
Nb      29.81853586      27.37765160       1.66044074  T       0.00000000       0.00000000       0.00000000
Nb      28.14928093      29.03210310       0.00000000  T       0.00000000       0.00000000       0.00000000
Nb      29.80875757      30.69359421       1.66044074  T       0.00000000       0.00000000       0.00000000
Nb      28.13766762      32.34773390       0.00000000  T       0.00000000       0.00000000       0.00000000
Nb      29.79615129      34.00886317       1.66044074  T       0.00000000       0.00000000       0.00000000
Nb      28.12246520      35.66261424       0.00000000  T       0.00000000       0.00000000       0.00000000
Nb      29.77530892      37.31610511       1.66044074  F      -0.00041617       0.00028243       0.00000000
Nb      28.10176494      38.97652250       0.00000000  T       0.00000000       0.00000000       0.00000000
Nb      29.75900216      40.62364174       1.66044074  F      -0.00024240       0.00023187       0.00000000
Nb      28.07077268      42.27737816       0.00000000  F      -0.00022918      -0.00015107      -0.00000000
Nb      29.71667058      43.92855203       1.66044074  F       0.00015850       0.00043758      -0.00000000
Nb      28.01504201      45.58078651       0.00000000  F      -0.00032825       0.00037521      -0.00000000
Nb      29.63196820      47.23772557       1.66044074  F       0.00009388       0.00006515      -0.00000000
Nb      27.90661783      48.89304366       0.00000000  F       0.00009275       0.00040323       0.00000000
Nb      29.48076046      50.55652699       1.66044074  F       0.00001049      -0.00006325       0.00000000
Nb      27.72422706      52.21432149       0.00000000  F       0.00011599       0.00041492      -0.00000000
Nb      29.25405668      53.88538562       1.66044074  F       0.00034538      -0.00015871       0.00000000
Nb      27.46519098      55.54321713       0.00000000  F      -0.00025436       0.00030277      -0.00000000
Nb      32.28288235      57.22372030       1.66044074  F       0.00005123      -0.00083335      -0.00000000
Nb      30.48680743      58.88482913       0.00000000  F       0.00022156       0.00000164      -0.00000000
Nb      32.02309176      60.54838487       1.66044074  F       0.00027713      -0.00072298       0.00000000
Nb      30.25808164      62.20281596       0.00000000  F       0.00059912      -0.00003431       0.00000000
Nb      31.83633557      63.86938554       1.66044074  F       0.00023263      -0.00023561      -0.00000000
Nb      30.12000570      65.52554713      -0.00000000  F      -0.00018013      -0.00019816       0.00000000
Nb      31.73209154      67.19527078       1.66044074  F       0.00013649      -0.00015648       0.00000000
Nb      30.05076287      68.85491592      -0.00000000  F      -0.00035762       0.00016883      -0.00000000
Nb      31.68084561      70.52586792       1.66044074  F      -0.00026154      -0.00007803       0.00000000
Nb      30.01198624      72.18768635       0.00000000  F      -0.00009822      -0.00011924      -0.00000000
Nb      31.65311199      73.85552946       1.66044074  F      -0.00018440       0.00026891      -0.00000000
Nb      29.99620347      75.51373088       0.00000000  T       0.00000000       0.00000000       0.00000000
Nb      31.64208259      77.18130669       1.66044074  T       0.00000000       0.00000000       0.00000000
Nb      29.97941257      78.84106030       0.00000000  T       0.00000000       0.00000000       0.00000000
Nb      31.62835276      80.50818811       1.66044074  T       0.00000000       0.00000000       0.00000000
Nb      29.96684486      82.16753057       0.00000000  T       0.00000000       0.00000000       0.00000000
Nb      31.61789206      83.83430462       1.66044074  T       0.00000000       0.00000000       0.00000000
Nb      29.95710049      85.49333019       0.00000000  T       0.00000000       0.00000000       0.00000000
Nb      31.60966828      87.15981684       1.66044074  T       0.00000000       0.00000000       0.00000000
Nb      29.94933350      88.81859240       0.00000000  T       0.00000000       0.00000000       0.00000000
Nb      31.60304051      90.48483970       1.66044074  T       0.00000000       0.00000000       0.00000000
Nb      33.16007555      20.75200146       1.66044074  T       0.00000000       0.00000000       0.00000000
Nb      31.49351666      22.40653617       0.00000000  T       0.00000000       0.00000000       0.00000000
Nb      33.15438733      24.06894850       1.66044074  T       0.00000000       0.00000000       0.00000000
Nb      31.48686065      25.72325799       0.00000000  T       0.00000000       0.00000000       0.00000000
Nb      33.14739946      27.38544528       1.66044074  T       0.00000000       0.00000000       0.00000000
Nb      31.47860283      29.03948788       0.00000000  T       0.00000000       0.00000000       0.00000000
Nb      33.13862134      30.70139170       1.66044074  T       0.00000000       0.00000000       0.00000000
Nb      31.46810141      32.35511036       0.00000000  T       0.00000000       0.00000000       0.00000000
Nb      33.12523304      34.00858083       1.66044074  F      -0.00039704      -0.00009637       0.00000000
Nb      31.45155883      35.66193922      -0.00000000  F      -0.00051491      -0.00000617      -0.00000000
Nb      33.11501357      37.31790196       1.66044074  F       0.00026898       0.00029536      -0.00000000
Nb      31.43881309      38.96945930      -0.00000000  F      -0.00004697       0.00034042       0.00000000
Nb      33.09793903      40.62558652       1.66044074  F       0.00017276      -0.00007808      -0.00000000
Nb      31.41158880      42.27695427       0.00000000  F       0.00056058       0.00044477      -0.00000000
Nb      33.05390850      43.93358743       1.66044074  F       0.00008865      -0.00031640       0.00000000
Nb      31.34760459      45.58475053      -0.00000000  F       0.00037549       0.00018370       0.00000000
Nb      32.95870184      47.24453581       1.66044074  F      -0.00001810      -0.00013295       0.00000000
Nb      31.22513081      48.89948914       0.00000000  F      -0.00004109      -0.00048766      -0.00000000
Nb      32.79362543      50.56380096       1.66044074  F      -0.00002997      -0.00063628      -0.00000000
Nb      31.02935890      52.22464470       0.00000000  F       0.00009197      -0.00088288       0.00000000
Nb      32.55906503      53.89239369       1.66044074  F      -0.00033935      -0.00065960      -0.00000000
Nb      30.76907611      55.55700189       0.00000000  F       0.00029628      -0.00046139      -0.00000000
Nb      35.59522664      57.22132604       1.66044074  F       0.00006698       0.00117889      -0.00000000
Nb      33.80480429      58.88721668      -0.00000000  F      -0.00022829      -0.00048476       0.00000000
Nb      35.33911410      60.55016036       1.66044074  F      -0.00031917       0.00128629      -0.00000000
Nb      33.57729012      62.21203305       0.00000000  F      -0.00021765      -0.00086206      -0.00000000
Nb      35.14877869      63.87702212       1.66044074  F      -0.00069322       0.00083655       0.00000000
Nb      33.43021929      65.53680387      -0.00000000  F      -0.00027088      -0.00052068      -0.00000000
Nb      35.03795926      67.20501535       1.66044074  F      -0.00076918       0.00044050       0.00000000
Nb      33.35395513      68.86523954       0.00000000  F      -0.00040151       0.00007148      -0.00000000
Nb      34.98438640      70.53462070       1.66044074  F      -0.00045076      -0.00005070      -0.00000000
Nb      33.31712012      72.19478520       0.00000000  F      -0.00021368       0.00031566       0.00000000
Nb      34.95937951      73.86293695       1.66044074  F       0.00005503       0.00004580       0.00000000
Nb      33.29830765      75.52313092       0.00000000  F       0.00005759       0.00038181      -0.00000000
Nb      34.94628328      77.19060776       1.66044074  F       0.00025316       0.00035989      -0.00000000
Nb      33.29001748      78.84887234       0.00000000  T       0.00000000       0.00000000       0.00000000
Nb      34.93961898      80.51647149       1.66044074  T       0.00000000       0.00000000       0.00000000
Nb      33.27872849      82.17534935       0.00000000  T       0.00000000       0.00000000       0.00000000
Nb      34.93029867      83.84258039       1.66044074  T       0.00000000       0.00000000       0.00000000
Nb      33.26999076      85.50114185       0.00000000  T       0.00000000       0.00000000       0.00000000
Nb      34.92298287      87.16807333       1.66044074  T       0.00000000       0.00000000       0.00000000
Nb      33.26303581      88.82638714       0.00000000  T       0.00000000       0.00000000       0.00000000
Nb      34.91709468      90.49306816       1.66044074  T       0.00000000       0.00000000       0.00000000
Nb      34.82608506      19.09758890       0.00000000  T       0.00000000       0.00000000       0.00000000
Nb      36.48745798      20.76069138       1.66044074  T       0.00000000       0.00000000       0.00000000
Nb      34.82122363      22.41475021       0.00000000  T       0.00000000       0.00000000       0.00000000
Nb      36.48244407      24.07767660       1.66044074  T       0.00000000       0.00000000       0.00000000
Nb      34.81530435      25.73149746       0.00000000  T       0.00000000       0.00000000       0.00000000
Nb      36.47627565      27.39420286       1.66044074  T       0.00000000       0.00000000       0.00000000
Nb      34.80794993      29.04774347       0.00000000  T       0.00000000       0.00000000       0.00000000
Nb      36.46599082      30.70214181       1.66044074  F      -0.00052240      -0.00041728      -0.00000000
Nb      34.79651913      32.35547751       0.00000000  F      -0.00050426      -0.00027983      -0.00000000
Nb      36.45998561      34.01477399       1.66044074  F      -0.00000449      -0.00036170       0.00000000
Nb      34.78881526      35.66655159      -0.00000000  F       0.00011832       0.00006471       0.00000000
Nb      36.45268020      37.32480110       1.66044074  F      -0.00009512      -0.00059953       0.00000000
Nb      34.77764522      38.97512474      -0.00000000  F       0.00024630      -0.00002466       0.00000000
Nb      36.43693432      40.63354272       1.66044074  F      -0.00015588      -0.00104232       0.00000000
Nb      34.75015127      42.28335977      -0.00000000  F      -0.00008285      -0.00070519      -0.00000000
Nb      36.39156416      43.94125348       1.66044074  F      -0.00007290      -0.00033212       0.00000000
Nb      34.68121061      45.59210589      -0.00000000  F      -0.00005179      -0.00069397      -0.00000000
Nb      36.28929985      47.25074712       1.66044074  F       0.00013248      -0.00014911      -0.00000000
Nb      34.54728542      48.90555859      -0.00000000  F      -0.00010738       0.00025282       0.00000000
Nb      36.11305990      50.56679965       1.66044074  F      -0.00014749      -0.00046175       0.00000000
Nb      34.34036154      52.22790890      -0.00000000  F      -0.00006195       0.00053229       0.00000000
Nb      35.87036036      53.89150846       1.66044074  F       0.00011004       0.00037113       0.00000000
Nb      34.07812219      55.55774172      -0.00000000  F      -0.00006080       0.00046300       0.00000000
Nb      38.90616441      57.21715708       1.66044074  F      -0.00036650      -0.00118911      -0.00000000
Nb      37.11676667      58.88502190      -0.00000000  F      -0.00004759      -0.00021624       0.00000000
Nb      38.64763290      60.54982247       1.66044074  F      -0.00037485      -0.00142539      -0.00000000
Nb      36.88839588      62.21504302       0.00000000  F      -0.00018642       0.00011522      -0.00000000
Nb      38.45481101      63.88178697       1.66044074  F      -0.00033405      -0.00109525       0.00000000
Nb      36.73708683      65.54426505      -0.00000000  F      -0.00032693      -0.00002366       0.00000000
Nb      38.34177103      67.21259405       1.66044074  F      -0.00070811       0.00011719      -0.00000000
Nb      36.65797399      68.87395784      -0.00000000  F      -0.00043667      -0.00005452      -0.00000000
Nb      38.28877726      70.54275383       1.66044074  F      -0.00103960       0.00047043       0.00000000
Nb      36.62228786      72.20321157       0.00000000  F      -0.00040351       0.00018908      -0.00000000
Nb      38.26578065      73.87164509       1.66044074  F      -0.00034780       0.00023658       0.00000000
Nb      36.60560235      75.53082812       0.00000000  F       0.00011258       0.00043781      -0.00000000
Nb      38.25415138      77.19907446       1.66044074  F       0.00064119       0.00025836      -0.00000000
Nb      36.59591424      78.85833665       0.00000000  F       0.00034980       0.00038330      -0.00000000
Nb      38.24653736      80.52668172       1.66044074  F       0.00060338       0.00023239       0.00000000
Nb      36.59058918      82.18414815       0.00000000  T       0.00000000       0.00000000       0.00000000
Nb      38.24269723      83.85194738       1.66044074  T       0.00000000       0.00000000       0.00000000
Nb      36.58287342      85.50991846       0.00000000  T       0.00000000       0.00000000       0.00000000
Nb      38.23630181      87.17740209       1.66044074  T       0.00000000       0.00000000       0.00000000
Nb      36.57674106      88.83513120       0.00000000  T       0.00000000       0.00000000       0.00000000
Nb      38.23116213      90.50234902       1.66044074  T       0.00000000       0.00000000       0.00000000
Nb      36.57175603      92.15988810       0.00000000  T       0.00000000       0.00000000       0.00000000
Nb      38.22694674      93.82687645       1.66044074  T       0.00000000       0.00000000       0.00000000
Nb      39.81839932      17.45311207       1.66044074  T       0.00000000       0.00000000       0.00000000
Nb      38.15316320      19.10680166       0.00000000  T       0.00000000       0.00000000       0.00000000
Nb      39.81481975      20.77055215       1.66044074  T       0.00000000       0.00000000       0.00000000
Nb      38.14892131      22.42401636       0.00000000  T       0.00000000       0.00000000       0.00000000
Nb      39.81048879      24.08760094       1.66044074  T       0.00000000       0.00000000       0.00000000
Nb      38.14374853      25.74080851       0.00000000  T       0.00000000       0.00000000       0.00000000
Nb      39.80176742      27.39610448       1.66044074  F      -0.00008764      -0.00080527       0.00000000
Nb      38.13425261      29.04878962      -0.00000000  F      -0.00047322      -0.00071734       0.00000000
Nb      39.79700176      30.71012353       1.66044074  F      -0.00004636      -0.00028064       0.00000000
Nb      38.12914916      32.36242254       0.00000000  F       0.00003792      -0.00023068      -0.00000000
Nb      39.79337152      34.02201460       1.66044074  F      -0.00021071      -0.00070471       0.00000000
Nb      38.12422293      35.67375415      -0.00000000  F      -0.00033552      -0.00087548      -0.00000000
Nb      39.78949011      37.33246532       1.66044074  F      -0.00074855      -0.00083662       0.00000000
Nb      38.11604567      38.98344100       0.00000000  F      -0.00055435      -0.00115122      -0.00000000
Nb      39.77602079      40.64115749       1.66044074  F      -0.00027024      -0.00036699      -0.00000000
Nb      38.08946012      42.29127268       0.00000000  F       0.00000650      -0.00038221      -0.00000000
Nb      39.73139055      43.94813967       1.66044074  F       0.00026753       0.00028562       0.00000000
Nb      38.01779670      45.59851109      -0.00000000  F       0.00066265       0.00042685      -0.00000000
Nb      39.62509880      47.25512858       1.66044074  F       0.00038056      -0.00027591      -0.00000000
Nb      37.87546457      48.90916965      -0.00000000  F       0.00058957      -0.00056565       0.00000000
Nb      39.43946393      50.56679354       1.66044074  F       0.00039111      -0.00027260      -0.00000000
Nb      37.65816585      52.22770081      -0.00000000  F       0.00031645      -0.00136484      -0.00000000
Nb      39.18687284      53.88776281       1.66044074  F       0.00046684      -0.00034076      -0.00000000
Nb      37.39022495      55.55446667      -0.00000000  F       0.00009806      -0.00107312      -0.00000000
Nb      42.21514378      57.21050440       1.66044074  F      -0.00082363       0.00007087       0.00000000
Nb      40.42382545      58.88078138       0.00000000  F      -0.00004790       0.00082794      -0.00000000
Nb      41.94933322      60.54725500       1.66044074  F      -0.00059923      -0.00024338       0.00000000
Nb      40.19222251      62.21591744       0.00000000  F      -0.00015887       0.00097622       0.00000000
Nb      41.75447770      63.88482959       1.66044074  F       0.00003552      -0.00084636      -0.00000000
Nb      40.03962742      65.54969454      -0.00000000  F      -0.00052434       0.00094177       0.00000000
Nb      41.64259975      67.21937645       1.66044074  F       0.00023637      -0.00077635      -0.00000000
Nb      39.96101533      68.88160558      -0.00000000  F      -0.00065506       0.00051109       0.00000000
Nb      41.59230087      70.55102446       1.66044074  F      -0.00030031      -0.00046903      -0.00000000
Nb      39.92763456      72.21178302       0.00000000  F      -0.00060866      -0.00015421      -0.00000000
Nb      41.57224966      73.88066281       1.66044074  F      -0.00079345       0.00009203      -0.00000000
Nb      39.91283283      75.54028703      -0.00000000  F      -0.00001436      -0.00025447       0.00000000
Nb      41.56193398      77.20916972       1.66044074  F       0.00004522      -0.00007731      -0.00000000
Nb      39.90416766      78.86778106      -0.00000000  F       0.00055240       0.00022629       0.00000000