1273
Lattice="129.86000744047428 0.0 0.0 0.0 121.83390416067749 0.0 0.0 0.0 2.8695278708154643" Properties=species:S:1:pos:R:3:fix_mask:L:1:forces:R:3 energy=-12687.047941085828 pbc="T T T"
Nb      21.62495271      39.04839401      -0.26998448  T       0.00000000       0.00000000       0.00000000
Nb      20.27320252      41.39126226       0.66195848  T       0.00000000       0.00000000       0.00000000
Nb      18.92183578      43.73426961      -1.27533650  T       0.00000000       0.00000000       0.00000000
Nb      21.62672271      43.73423935      -0.31003187  T       0.00000000       0.00000000       0.00000000
Nb      17.57081088      46.07736886      -0.34269238  T       0.00000000       0.00000000       0.00000000
Nb      20.27566526      46.07731795       0.62126837  T       0.00000000       0.00000000       0.00000000
Nb      18.92494221      48.42046385      -1.31642055  T       0.00000000       0.00000000       0.00000000
Nb      21.62977685      48.42040807      -0.35309948  T       0.00000000       0.00000000       0.00000000
Nb      17.57447743      50.76363102      -0.38392307  T       0.00000000       0.00000000       0.00000000
Nb      20.27936820      50.76358423       0.57795848  T       0.00000000       0.00000000       0.00000000
Nb      18.92917433      53.10675221      -1.35969263  T       0.00000000       0.00000000       0.00000000
Nb      21.63411759      53.10671614      -0.39872353  T       0.00000000       0.00000000       0.00000000
Nb      16.22418745      53.10678353       0.54933592  T       0.00000000       0.00000000       0.00000000
Nb      17.57909772      55.44988083      -0.42689491  T       0.00000000       0.00000000       0.00000000
Nb      20.28417277      55.44986203       0.53260977  T       0.00000000       0.00000000       0.00000000
Nb      18.93426995      57.79294657      -1.40448347  T       0.00000000       0.00000000       0.00000000
Nb      21.63946926      57.79293931      -0.44614240  T       0.00000000       0.00000000       0.00000000
Nb      16.22904762      57.79295271       0.50690087  T       0.00000000       0.00000000       0.00000000
Nb      17.58431591      60.13596195      -0.47088371  T       0.00000000       0.00000000       0.00000000
Nb      20.28968014      60.13596152       0.48605979  T       0.00000000       0.00000000       0.00000000
Nb      18.93975297      62.47891018       1.41960418  T       0.00000000       0.00000000       0.00000000
Nb      21.64528073      62.47890831       2.37519381  T       0.00000000       0.00000000       0.00000000
Nb      16.23423717      62.47891176       3.33344288  T       0.00000000       0.00000000       0.00000000
Nb      17.58962569      64.82179819       2.35449903  T       0.00000000       0.00000000       0.00000000
Nb      20.29529598      64.82178800       3.30885231  T       0.00000000       0.00000000       0.00000000
Nb      18.94504036      67.16462095       1.37448001  T       0.00000000       0.00000000       0.00000000
Nb      21.65085951      67.16459540       2.32737869  T       0.00000000       0.00000000       0.00000000
Nb      16.23926068      67.16464287       3.29072482  T       0.00000000       0.00000000       0.00000000
Nb      17.59449607      69.50742860       2.31108100  T       0.00000000       0.00000000       0.00000000
Nb      20.30039337      69.50739017       3.26297760  T       0.00000000       0.00000000       0.00000000
Nb      18.94960334      71.85018247       1.33059073  T       0.00000000       0.00000000       0.00000000
Nb      21.65558516      71.85012975       2.28102756  T       0.00000000       0.00000000       0.00000000
Nb      16.24366427      71.85023004       3.24905770  T       0.00000000       0.00000000       0.00000000
Nb      17.59850941      74.19298940       2.26917369  T       0.00000000       0.00000000       0.00000000
Nb      20.30449381      74.19293515       3.21887835  T       0.00000000       0.00000000       0.00000000
Nb      18.95310081      76.53577471       1.28868511  T       0.00000000       0.00000000       0.00000000
Nb      21.65908167      76.53572930       2.23700458  T       0.00000000       0.00000000       0.00000000
Nb      20.30737054      78.87862894       3.17723094  T       0.00000000       0.00000000       0.00000000
Nb      21.66126468      81.22160058       2.19587841  T       0.00000000       0.00000000       0.00000000
Nb      21.66227544      85.90786878       2.15793723  T       0.00000000       0.00000000       0.00000000
Nb      28.38943468      27.33740103       0.80917484  T       0.00000000       0.00000000       0.00000000
Nb      27.03587899      29.67909159      -1.12791771  T       0.00000000       0.00000000       0.00000000
Nb      29.74183034      29.67990492      -0.15543391  T       0.00000000       0.00000000       0.00000000
Nb      25.68260370      32.02103962      -0.19583718  T       0.00000000       0.00000000       0.00000000
Nb      28.38833229      32.02162888       0.77565841  T       0.00000000       0.00000000       0.00000000
Nb      27.03516869      34.36364051      -1.16311573  T       0.00000000       0.00000000       0.00000000
Nb      29.74081246      34.36416793      -0.19133126  T       0.00000000       0.00000000       0.00000000
Nb      24.32966569      34.36324986       0.73601309  T       0.00000000       0.00000000       0.00000000
Nb      22.97710755      36.70571034      -1.20176518  T       0.00000000       0.00000000       0.00000000
Nb      25.68239923      36.70593725      -0.23255384  T       0.00000000       0.00000000       0.00000000
Nb      28.38779873      36.70626159       0.73797221  T       0.00000000       0.00000000       0.00000000
Nb      27.03524435      39.04866194      -1.20238800  T       0.00000000       0.00000000       0.00000000
Nb      29.74052365      39.04891414      -0.23181032  T       0.00000000       0.00000000       0.00000000
Nb      24.33006346      39.04849692       0.69796760  T       0.00000000       0.00000000       0.00000000
Nb      22.97817567      41.39128086      -1.24092692  T       0.00000000       0.00000000       0.00000000
Nb      25.68318162      41.39133329      -0.27317879  T       0.00000000       0.00000000       0.00000000
Nb      28.38824160      41.39143584       0.69585154  T       0.00000000       0.00000000       0.00000000
Nb      27.03651084      43.73422922      -1.24586189  T       0.00000000       0.00000000       0.00000000
Nb      29.73707086      43.73216018      -0.27653998  F      -0.00000000       0.00000000       0.00000002
Nb      24.33161009      43.73422290       0.65624834  T       0.00000000       0.00000000       0.00000000
Nb      22.98049608      46.07726879      -1.28346386  T       0.00000000       0.00000000       0.00000000
Nb      25.68530852      46.07722515      -0.31769094  T       0.00000000       0.00000000       0.00000000
Nb      28.38540511      46.07540020       0.64952285  F      -0.00000000       0.00000000       0.00000001
Nb      27.03457493      48.41881558      -1.29347086  F      -0.00000000       0.00000000       0.00000001
Nb      29.73887751      48.41798188      -0.32682471  F      -0.00000000       0.00000000       0.00000003
Nb      24.33457307      48.42034917       0.61102989  T       0.00000000       0.00000000       0.00000000
Nb      22.98421272      50.76353180      -1.32905078  T       0.00000000       0.00000000       0.00000000
Nb      25.68900669      50.76347332      -0.36577715  T       0.00000000       0.00000000       0.00000000
Nb      28.38982495      50.76170917       0.59850806  F      -0.00000000       0.00000000       0.00000002
Nb      27.04010279      53.10598474      -1.34486788  F      -0.00000000       0.00000000       0.00000002
Nb      29.74380440      53.10511222      -0.38158542  F      -0.00000000      -0.00000000       0.00000004
Nb      24.33901099      53.10667445       0.56280249  T       0.00000000       0.00000000       0.00000000
Nb      22.98920864      55.44983994      -1.37704423  T       0.00000000       0.00000000       0.00000000
Nb      25.68972148      55.44925921      -0.41719130  F      -0.00000000      -0.00000000       0.00000001
Nb      28.39422246      55.44881451       0.54361660  F      -0.00000000      -0.00000000       0.00000003
Nb      27.04571921      57.79227996      -1.39876165  F      -0.00000000      -0.00000000       0.00000002
Nb      29.74981072      57.79191919      -0.43963384  F      -0.00000000      -0.00000000       0.00000004
Nb      24.34464126      57.79293065       0.51243432  T       0.00000000       0.00000000       0.00000000
Nb      22.99503780      60.13596100      -1.42647017  T       0.00000000       0.00000000       0.00000000
Nb      25.69649514      60.13577995      -0.47014378  F      -0.00000000      -0.00000000       0.00000001
Nb      28.40103985      60.13543964       0.48682817  F      -0.00000000      -0.00000000       0.00000003
Nb      27.05261165      62.47881283       1.41567427  F      -0.00000000      -0.00000000       0.00000002
Nb      29.75719623      62.47856594       2.37050747  F      -0.00000000      -0.00000000       0.00000004
Nb      24.35082273      62.47890606       3.33066458  T       0.00000000       0.00000000       0.00000000
Nb      23.00099666      64.82177593       1.39340969  T       0.00000000       0.00000000       0.00000000
Nb      25.70288762      64.82191250       2.34642529  F      -0.00000000      -0.00000000       0.00000001
Nb      28.40821401      64.82172732       3.29939028  F      -0.00000000      -0.00000000       0.00000003
Nb      27.05948901      67.16461624       1.36135986  F      -0.00000000      -0.00000000       0.00000002
Nb      29.76451457      67.16480955       2.31208652  F      -0.00000000      -0.00000000       0.00000004
Nb      24.35672457      67.16456541       3.27982048  T       0.00000000       0.00000000       0.00000000
Nb      23.00633813      69.50734619       1.34479048  T       0.00000000       0.00000000       0.00000000
Nb      25.71233652      69.50729578       2.29547004  T       0.00000000       0.00000000       0.00000000
Nb      28.41513678      69.50814602       3.24454589  F      -0.00000000      -0.00000000       0.00000002
Nb      27.06357924      71.85116943       1.30952408  F      -0.00000000      -0.00000000       0.00000001
Nb      29.76949940      71.85128031       2.25660444  F      -0.00000000      -0.00000000       0.00000003
Nb      24.36161305      71.85007169       3.23072908  T       0.00000000       0.00000000       0.00000000
Nb      23.01051218      74.19287873       1.29827587  T       0.00000000       0.00000000       0.00000000
Nb      25.71656295      74.19282205       2.24628486  T       0.00000000       0.00000000       0.00000000
Nb      28.41870588      74.19408081       3.19263531  F      -0.00000000      -0.00000000       0.00000001
Nb      27.07107777      76.53566413       1.26116016  T       0.00000000       0.00000000       0.00000000
Nb      29.77362003      76.53705256       2.20542979  F      -0.00000000      -0.00000000       0.00000002
Nb      24.36507699      76.53569038       3.18439233  T       0.00000000       0.00000000       0.00000000
Nb      23.01329256      78.87861715       1.25463077  T       0.00000000       0.00000000       0.00000000
Nb      25.71919937      78.87862830       2.20048270  T       0.00000000       0.00000000       0.00000000
Nb      28.42507313      78.87867525       3.14507977  T       0.00000000       0.00000000       0.00000000
Nb      27.07282630      81.22175959       1.21625082  T       0.00000000       0.00000000       0.00000000
Nb      29.77850216      81.22193313       2.15920036  T       0.00000000       0.00000000       0.00000000
Nb      24.36707169      81.22165595       3.14143147  T       0.00000000       0.00000000       0.00000000
Nb      23.01474902      83.56473911       1.21428713  T       0.00000000       0.00000000       0.00000000
Nb      25.72039024      83.56490161       2.15850671  T       0.00000000       0.00000000       0.00000000
Nb      28.42593883      83.56514616       3.10140965  T       0.00000000       0.00000000       0.00000000
Nb      27.07324864      85.90840158       1.17554508  T       0.00000000       0.00000000       0.00000000
Nb      29.77855421      85.90883561       2.11709227  T       0.00000000       0.00000000       0.00000000
Nb      24.36781261      85.90808951       3.10212214  T       0.00000000       0.00000000       0.00000000
Nb      25.72046876      88.25168681       2.12046716  T       0.00000000       0.00000000       0.00000000
Nb      28.42567610      88.25218827       3.06223602  T       0.00000000       0.00000000       0.00000000
Nb      27.07275314      90.59555151       1.13898862  T       0.00000000       0.00000000       0.00000000
Nb      29.77772646      90.59627428       2.07968221  T       0.00000000       0.00000000       0.00000000
Nb      28.42471942      92.93968677       3.02734887  T       0.00000000       0.00000000       0.00000000
Nb      29.77643315      95.28407782       2.04661935  T       0.00000000       0.00000000       0.00000000
Nb      37.86433757      20.31720509      -0.03983359  T       0.00000000       0.00000000       0.00000000
Nb      33.80358634      22.65619607      -0.08253500  T       0.00000000       0.00000000       0.00000000
Nb      36.51018398      22.65794128       0.89348049  T       0.00000000       0.00000000       0.00000000
Nb      35.15602216      24.99876143      -1.04369626  T       0.00000000       0.00000000       0.00000000
Nb      37.86266604      25.00056291      -0.06672335  T       0.00000000       0.00000000       0.00000000
Nb      32.44953404      24.99723112       0.85035194  T       0.00000000       0.00000000       0.00000000
Nb      31.09559018      27.33845091      -1.08700324  T       0.00000000       0.00000000       0.00000000
Nb      33.80191964      27.33973525      -0.11221954  T       0.00000000       0.00000000       0.00000000
Nb      36.50843076      27.34129017       0.86412270  T       0.00000000       0.00000000       0.00000000
Nb      35.15427945      29.68220423      -1.07550807  T       0.00000000       0.00000000       0.00000000
Nb      37.86080875      29.68377791      -0.09823495  T       0.00000000       0.00000000       0.00000000
Nb      32.44795758      29.68092822       0.81849560  T       0.00000000       0.00000000       0.00000000
Nb      31.09422535      32.02239407      -1.12094429  T       0.00000000       0.00000000       0.00000000
Nb      33.80031027      32.02337937      -0.14642116  T       0.00000000       0.00000000       0.00000000
Nb      36.50661273      32.02463598       0.82988254  T       0.00000000       0.00000000       0.00000000
Nb      35.14910016      34.36244415      -1.11130825  F       0.00000000       0.00000000       0.00000001
Nb      37.85568514      34.36453706      -0.13325217  F       0.00000000       0.00000000       0.00000002
Nb      32.44662913      34.36487296       0.78201995  T       0.00000000       0.00000000       0.00000000
Nb      31.09333837      36.70671719      -1.15952794  T       0.00000000       0.00000000       0.00000000
Nb      33.79524269      36.70416661      -0.18471291  F      -0.00000000       0.00000000       0.00000001
Nb      36.50066912      36.70484582       0.79225374  F      -0.00000000       0.00000000       0.00000003
Nb      35.14703970      39.04649264      -1.15295034  F      -0.00000000       0.00000000       0.00000003
Nb      37.85241387      39.04694787      -0.17534609  F      -0.00000000       0.00000000       0.00000005
Nb      32.44199372      39.04651850       0.74131950  F      -0.00000000       0.00000000       0.00000002
Nb      31.08928832      41.38920290      -1.20238284  F      -0.00000000       0.00000000       0.00000002
Nb      33.79397180      41.38885195      -0.22910059  F      -0.00000000       0.00000000       0.00000003
Nb      36.49880353      41.38873268       0.74647296  F      -0.00000000       0.00000000       0.00000005
Nb      35.14596874      43.73119879      -1.20164820  F      -0.00000000       0.00000000       0.00000005
Nb      37.85066922      43.73098616      -0.22584818  F       0.00000000       0.00000000       0.00000007
Nb      32.44151835      43.73165737       0.69459566  F      -0.00000000       0.00000000       0.00000003
Nb      31.08975553      46.07476329      -1.25109215  F      -0.00000000       0.00000000       0.00000003
Nb      33.79399436      46.07415928      -0.28025252  F      -0.00000000       0.00000000       0.00000005
Nb      36.49827986      46.07366971       0.69282078  F      -0.00000000       0.00000000       0.00000007
Nb      35.14698498      48.41687057      -1.25778984  F      -0.00000000      -0.00000000       0.00000007
Nb      37.85095503      48.41630972      -0.28525818  F       0.00000000      -0.00000000       0.00000008
Nb      32.44298999      48.41744070       0.64152611  F      -0.00000000       0.00000000       0.00000005
Nb      31.09322682      50.76107532      -1.30535418  F      -0.00000000       0.00000000       0.00000004
Nb      33.79681704      50.76047188      -0.33808097  F      -0.00000000      -0.00000000       0.00000006
Nb      36.50045978      50.75983961       0.63105088  F       0.00000000      -0.00000000       0.00000008
Nb      35.15100230      53.10370953      -1.32088175  F      -0.00000000      -0.00000000       0.00000008
Nb      37.85452736      53.10305217      -0.35335174  F       0.00000000      -0.00000000       0.00000010
Nb      32.44741913      53.10436800       0.58285530  F      -0.00000000      -0.00000000       0.00000006
Nb      31.09838709      55.44823724      -1.36412601  F      -0.00000000      -0.00000000       0.00000005
Nb      33.80223337      55.44766391      -0.40148640  F      -0.00000000      -0.00000000       0.00000007
Nb      36.50588833      55.44708805       0.56226478  F       0.00000000      -0.00000000       0.00000009
Nb      35.15780842      57.79106956      -1.38913745  F      -0.00000000      -0.00000000       0.00000008
Nb      37.86159505      57.79062440      -0.42810212  F       0.00000000      -0.00000000       0.00000010
Nb      32.45387959      57.79150422       0.52009682  F      -0.00000000      -0.00000000       0.00000006
Nb      31.10554948      60.13514100      -1.42549312  F      -0.00000000      -0.00000000       0.00000005
Nb      33.80987491      60.13485434      -0.46820992  F      -0.00000000      -0.00000000       0.00000007
Nb      36.51406265      60.13457025       0.48919467  F      -0.00000000      -0.00000000       0.00000009
Nb      35.16636688      62.47824801       1.41001792  F      -0.00000000      -0.00000000       0.00000008
Nb      37.87087075      62.47812245       2.36392892  F      -0.00000000      -0.00000000       0.00000010
Nb      32.46181185      62.47839421       3.32520040  F      -0.00000000      -0.00000000       0.00000006
Nb      31.11329547      64.82170565       1.38244855  F      -0.00000000      -0.00000000       0.00000005
Nb      33.81821240      64.82167039       2.33432378  F      -0.00000000      -0.00000000       0.00000007
Nb      36.52308925      64.82165591       3.28532484  F      -0.00000000      -0.00000000       0.00000009
Nb      35.17458830      67.16496288       1.34118005  F      -0.00000000      -0.00000000       0.00000008
Nb      37.87974064      67.16509249       2.28846832  F      -0.00000000      -0.00000000       0.00000010
Nb      32.46949426      67.16491376       3.26196790  F      -0.00000000      -0.00000000       0.00000006
Nb      31.12009661      69.50815315       1.32317445  F      -0.00000000      -0.00000000       0.00000004
Nb      33.82530392      69.50814903       2.27019956  F      -0.00000000      -0.00000000       0.00000006
Nb      36.53061694      69.50829966       3.21561246  F      -0.00000000      -0.00000000       0.00000008
Nb      35.18064911      71.85137682       1.27700682  F      -0.00000000      -0.00000000       0.00000007
Nb      37.88605755      71.85179099       2.21901058  F      -0.00000000      -0.00000000       0.00000009
Nb      32.47511497      71.85122325       3.20241500  F      -0.00000000      -0.00000000       0.00000005
Nb      31.12445939      74.19410669       1.26794248  F      -0.00000000      -0.00000000       0.00000003
Nb      33.83003427      74.19434427       2.21118257  F      -0.00000000      -0.00000000       0.00000005
Nb      36.53545785      74.19483924       3.15235973  F      -0.00000000      -0.00000000       0.00000007
Nb      35.18436025      76.53785934       1.21931654  F      -0.00000000      -0.00000000       0.00000005
Nb      37.88946286      76.53876614       2.15766191  F      -0.00000000      -0.00000000       0.00000007
Nb      32.47909427      76.53726315       3.14811553  F      -0.00000000      -0.00000000       0.00000003
Nb      31.12782231      78.88031037       1.21788237  F      -0.00000000      -0.00000000       0.00000002
Nb      33.83296751      78.88089070       2.15842193  F      -0.00000000      -0.00000000       0.00000003
Nb      36.53783570      78.88190352       3.09676368  F      -0.00000000      -0.00000000       0.00000005
Nb      35.18590357      81.22506330       1.16871728  F      -0.00000000      -0.00000000       0.00000003
Nb      37.89043047      81.22643236       2.10489330  F      -0.00000000      -0.00000000       0.00000005
Nb      32.48111179      81.22399202       3.09972900  F      -0.00000000      -0.00000000       0.00000002
Nb      31.13136227      83.56550406       1.17327065  T       0.00000000       0.00000000       0.00000000
Nb      33.83356584      83.56825030       2.11212980  F      -0.00000000      -0.00000000       0.00000002
Nb      36.53804177      83.56967029       3.04886998  F      -0.00000000      -0.00000000       0.00000003
Nb      35.18538942      85.91298780       1.12485064  F      -0.00000000      -0.00000000       0.00000001
Nb      37.88970982      85.91440273       2.06022242  F      -0.00000000      -0.00000000       0.00000003
Nb      32.48369472      85.90943157       3.05704085  T       0.00000000       0.00000000       0.00000000
Nb      31.13072294      88.25285366       1.13301388  T       0.00000000       0.00000000       0.00000000
Nb      33.83557754      88.25372855       2.07167206  T       0.00000000       0.00000000       0.00000000
Nb      36.53701273      88.25787826       3.00797756  F      -0.00000000      -0.00000000       0.00000001
Nb      35.18711316      90.59837465       1.08689649  T       0.00000000       0.00000000       0.00000000
Nb      37.89148287      90.59984973       2.02260313  T       0.00000000       0.00000000       0.00000000
Nb      32.48252118      90.59719987       3.01888287  T       0.00000000       0.00000000       0.00000000
Nb      31.12947123      92.94065038       1.09756261  T       0.00000000       0.00000000       0.00000000
Nb      33.83404045      92.94184740       2.03581184  T       0.00000000       0.00000000       0.00000000
Nb      36.53841396      92.94331940       2.97242681  T       0.00000000       0.00000000       0.00000000
Nb      35.18537650      95.28674686       1.05347957  T       0.00000000       0.00000000       0.00000000
Nb      37.88958861      95.28849007       1.98936614  T       0.00000000       0.00000000       0.00000000
Nb      32.48099112      95.28528660       2.98554475  T       0.00000000       0.00000000       0.00000000
Nb      31.12796505      97.62869369       1.06644456  T       0.00000000       0.00000000       0.00000000
Nb      33.83236765      97.63013607       2.00469715  T       0.00000000       0.00000000       0.00000000
Nb      36.53661947      97.63183306       2.94154273  T       0.00000000       0.00000000       0.00000000
Nb      35.18367598      99.97514072       1.02465313  T       0.00000000       0.00000000       0.00000000
Nb      37.88784671      99.97703314       1.96104890  T       0.00000000       0.00000000       0.00000000
Nb      45.98573608      15.64028072       0.04703495  T       0.00000000       0.00000000       0.00000000
Nb      41.92515040      17.97870381       0.00363574  T       0.00000000       0.00000000       0.00000000
Nb      44.63188081      17.98106623       0.98262433  T       0.00000000       0.00000000       0.00000000
Nb      43.27787112      20.32168692      -0.95265377  T       0.00000000       0.00000000       0.00000000
Nb      45.98467625      20.32418929       0.02767881  T       0.00000000       0.00000000       0.00000000
Nb      40.57107848      20.31934486       0.93785979  T       0.00000000       0.00000000       0.00000000
Nb      39.21690285      22.65994100      -0.99862760  T       0.00000000       0.00000000       0.00000000
Nb      41.92371807      22.66219255      -0.01975059  T       0.00000000       0.00000000       0.00000000
Nb      44.63059335      22.66467304       0.96061281  T       0.00000000       0.00000000       0.00000000
Nb      43.27634899      25.00502657      -0.97749896  T       0.00000000       0.00000000       0.00000000
Nb      45.98331739      25.00766279       0.00438552  T       0.00000000       0.00000000       0.00000000
Nb      40.56945100      25.00265145       0.91182929  T       0.00000000       0.00000000       0.00000000
Nb      39.21512205      27.34314826      -1.02738321  T       0.00000000       0.00000000       0.00000000
Nb      41.92197882      27.34533195      -0.04757204  T       0.00000000       0.00000000       0.00000000
Nb      44.62694150      27.34468063       0.93594470  F       0.00000000       0.00000000       0.00000001
Nb      43.27205153      29.68494087      -1.00491393  F       0.00000000       0.00000000       0.00000002
Nb      45.97895677      29.68708829      -0.02022840  F       0.00000000       0.00000000       0.00000003
Nb      40.56493546      29.68218441       0.88243253  F       0.00000000       0.00000000       0.00000001
Nb      39.21084817      32.02338343      -1.05948754  F      -0.00000000       0.00000000       0.00000002
Nb      41.91686789      32.02457754      -0.07767003  F       0.00000000       0.00000000       0.00000003
Nb      44.62384773      32.02695896       0.90630689  F       0.00000000       0.00000000       0.00000004
Nb      43.26855442      34.36676859      -1.03865382  F       0.00000000       0.00000000       0.00000005
Nb      45.97560265      34.36900319      -0.05261383  F       0.00000000      -0.00000000       0.00000006
Nb      40.56208574      34.36529108       0.84759219  F       0.00000000       0.00000000       0.00000004
Nb      39.20697569      36.70606749      -1.09807703  F       0.00000000       0.00000000       0.00000004
Nb      41.91337027      36.70709525      -0.11603498  F       0.00000000       0.00000000       0.00000006
Nb      44.62007802      36.70870227       0.86903851  F       0.00000000      -0.00000000       0.00000007
Nb      43.26470179      39.04884801      -1.08102586  F       0.00000000      -0.00000000       0.00000008
Nb      45.97149655      39.05048370      -0.09391094  F       0.00000000      -0.00000000       0.00000009
Nb      40.55838188      39.04777733       0.80497281  F       0.00000000       0.00000000       0.00000006
Nb      39.20406114      41.38899080      -1.14479216  F       0.00000000       0.00000000       0.00000007
Nb      41.90977583      41.38957046      -0.16337132  F       0.00000000      -0.00000000       0.00000008
Nb      44.61599404      41.39056518       0.82177091  F       0.00000000      -0.00000000       0.00000010
Nb      43.26116630      43.73141317      -1.13407818  F       0.00000000      -0.00000000       0.00000010
Nb      45.96720773      43.73224059      -0.14722059  F       0.00000000      -0.00000000       0.00000012
Nb      40.55568701      43.73103356       0.75297779  F       0.00000000      -0.00000000       0.00000008
Nb      39.20270220      46.07331587      -1.20089716  F       0.00000000      -0.00000000       0.00000009
Nb      41.90742335      46.07316877      -0.22170378  F       0.00000000      -0.00000000       0.00000010
Nb      44.61257673      46.07331131       0.76169050  F       0.00000000      -0.00000000       0.00000012
Nb      43.25937536      48.41545833      -1.20011597  F       0.00000000      -0.00000000       0.00000012
Nb      45.96410786      48.41533105      -0.21609389  F       0.00000000      -0.00000000       0.00000014
Nb      40.55504959      48.41582114       0.69020611  F       0.00000000      -0.00000000       0.00000010
Nb      39.20413358      50.75920108      -1.26697739  F       0.00000000      -0.00000000       0.00000010
Nb      41.90785688      50.75857015      -0.29241347  F       0.00000000      -0.00000000       0.00000012
Nb      44.61173562      50.75799544       0.68619372  F       0.00000000      -0.00000000       0.00000014
Nb      43.26136827      53.10163766      -1.28024941  F       0.00000000      -0.00000000       0.00000014
Nb      45.96478848      53.10088779      -0.30325346  F       0.00000000      -0.00000000       0.00000015
Nb      40.55797270      53.10236466       0.61644695  F       0.00000000      -0.00000000       0.00000012
Nb      39.20938729      55.44648787      -1.34204853  F       0.00000000      -0.00000000       0.00000011
Nb      41.91272051      55.44583176      -0.37486937  F       0.00000000      -0.00000000       0.00000013
Nb      44.61588973      55.44509474       0.59501912  F       0.00000000      -0.00000000       0.00000015
Nb      43.26858940      57.78961933      -1.37223584  F       0.00000000      -0.00000000       0.00000014
Nb      45.97172831      57.78900266      -0.40695299  F       0.00000000      -0.00000000       0.00000016
Nb      40.56519823      57.79014879       0.53392085  F       0.00000000      -0.00000000       0.00000012
Nb      39.21811000      60.13428864      -1.42275513  F       0.00000000      -0.00000000       0.00000011