1820
Lattice="114.57639849475322 0.0 0.0 0.0 117.0256364904931 0.0 0.0 0.0 4.5009860188651185" Properties=species:S:1:pos:R:3:fix_mask:L:1:forces:R:3 energy=-19168.436808327373 pbc="T T T"
Mo      11.23945682      52.59645575       2.25049301  T       0.00000000       0.00000000       0.00000000
Mo      11.20158607      54.84353235      -0.00000000  T       0.00000000       0.00000000       0.00000000
Mo      11.16347935      57.09216932       2.25049301  T       0.00000000       0.00000000       0.00000000
Mo      14.30685944      59.34780161      -0.00000000  T       0.00000000       0.00000000       0.00000000
Mo      14.26602477      61.59980849       2.25049301  T       0.00000000       0.00000000       0.00000000
Mo      14.22551196      63.85360319      -0.00000000  T       0.00000000       0.00000000       0.00000000
Mo      14.62064514      41.39331713      -0.00000000  T       0.00000000       0.00000000       0.00000000
Mo      14.58455901      43.63252919       2.25049301  T       0.00000000       0.00000000       0.00000000
Mo      12.94835152      45.86830370       2.25049301  T       0.00000000       0.00000000       0.00000000
Mo      14.54718769      45.87290352      -0.00000000  T       0.00000000       0.00000000       0.00000000
Mo      12.91106548      48.11058190       0.00000000  T       0.00000000       0.00000000       0.00000000
Mo      14.50871563      48.11462094       2.25049301  T       0.00000000       0.00000000       0.00000000
Mo      12.87296592      50.35427703       2.25049301  T       0.00000000       0.00000000       0.00000000
Mo      14.46933849      50.35783811      -0.00000000  T       0.00000000       0.00000000       0.00000000
Mo      12.83423498      52.59950072       0.00000000  T       0.00000000       0.00000000       0.00000000
Mo      14.42925859      52.60268345       2.25049301  T       0.00000000       0.00000000       0.00000000
Mo      12.79505728      54.84633763       2.25049301  T       0.00000000       0.00000000       0.00000000
Mo      14.38868139      54.84925455      -0.00000000  T       0.00000000       0.00000000       0.00000000
Mo      12.75561799      57.09484428       0.00000000  T       0.00000000       0.00000000       0.00000000
Mo      14.34781312      57.09761658       2.25049301  T       0.00000000       0.00000000       0.00000000
Mo      15.89757133      59.35065743       2.25049301  T       0.00000000       0.00000000       0.00000000
Mo      17.48823189      59.35362397      -0.00000000  T       0.00000000       0.00000000       0.00000000
Mo      15.85520493      61.60278273       0.00000000  T       0.00000000       0.00000000       0.00000000
Mo      17.44421480      61.60588200       2.25049301  T       0.00000000       0.00000000       0.00000000
Mo      15.81319839      63.85683001       2.25049301  T       0.00000000       0.00000000       0.00000000
Mo      17.40060177      63.86021172      -0.00000000  T       0.00000000       0.00000000       0.00000000
Mo      15.77177571      66.11272260       0.00000000  T       0.00000000       0.00000000       0.00000000
Mo      17.35764382      66.11652376       2.25049301  T       0.00000000       0.00000000       0.00000000
Mo      15.73115704      68.37034820       2.25049301  T       0.00000000       0.00000000       0.00000000
Mo      17.31558714      68.37468751      -0.00000000  T       0.00000000       0.00000000       0.00000000
Mo      15.69155619      70.62956134       0.00000000  T       0.00000000       0.00000000       0.00000000
Mo      17.27466998      70.63453423       2.25049301  T       0.00000000       0.00000000       0.00000000
Mo      17.23511809      72.89586173      -0.00000000  T       0.00000000       0.00000000       0.00000000
Mo      17.19713878      75.15844076       2.25049301  T       0.00000000       0.00000000       0.00000000
Mo      17.92711508      34.69804539       2.25049301  T       0.00000000       0.00000000       0.00000000
Mo      17.89486337      36.93363757      -0.00000000  T       0.00000000       0.00000000       0.00000000
Mo      16.25756956      39.16210431       0.00000000  T       0.00000000       0.00000000       0.00000000
Mo      17.86053113      39.16966459       2.25049301  T       0.00000000       0.00000000       0.00000000
Mo      16.22211289      41.39962246       2.25049301  T       0.00000000       0.00000000       0.00000000
Mo      17.82424120      41.40639614      -0.00000000  T       0.00000000       0.00000000       0.00000000
Mo      16.18504370      43.63811349       0.00000000  T       0.00000000       0.00000000       0.00000000
Mo      17.78615665      43.64410289       2.25049301  T       0.00000000       0.00000000       0.00000000
Mo      16.14654403      45.87780495       2.25049301  T       0.00000000       0.00000000       0.00000000
Mo      17.74647437      45.88304498      -0.00000000  T       0.00000000       0.00000000       0.00000000
Mo      16.10681661      48.11890437       0.00000000  T       0.00000000       0.00000000       0.00000000
Mo      17.70541739      48.12346150       2.25049301  T       0.00000000       0.00000000       0.00000000
Mo      16.06607838      50.36159235       2.25049301  T       0.00000000       0.00000000       0.00000000
Mo      17.66322688      50.36556171      -0.00000000  T       0.00000000       0.00000000       0.00000000
Mo      16.02455483      52.60601744       0.00000000  T       0.00000000       0.00000000       0.00000000
Mo      17.62015503      52.60951828       2.25049301  T       0.00000000       0.00000000       0.00000000
Mo      15.98247550      54.85229268       2.25049301  T       0.00000000       0.00000000       0.00000000
Mo      17.57645937      54.85546293      -0.00000000  T       0.00000000       0.00000000       0.00000000
Mo      15.94007101      57.10049362       0.00000000  T       0.00000000       0.00000000       0.00000000
Mo      17.53239891      57.10348372       2.25049301  T       0.00000000       0.00000000       0.00000000
Mo      19.07883468      59.35671017       2.25049301  T       0.00000000       0.00000000       0.00000000
Mo      20.66937209      59.35992618      -0.00000000  T       0.00000000       0.00000000       0.00000000
Mo      19.03303356      61.60911766       0.00000000  T       0.00000000       0.00000000       0.00000000
Mo      20.62163687      61.61250274       2.25049301  T       0.00000000       0.00000000       0.00000000
Mo      18.98768824      63.86376451       2.25049301  T       0.00000000       0.00000000       0.00000000
Mo      20.57441837      63.86750731      -0.00000000  T       0.00000000       0.00000000       0.00000000
Mo      18.94308123      66.12054598       0.00000000  T       0.00000000       0.00000000       0.00000000
Mo      20.52803607      66.12481629       2.25049301  T       0.00000000       0.00000000       0.00000000
Mo      18.89948898      68.37930927       2.25049301  T       0.00000000       0.00000000       0.00000000
Mo      20.48280171      68.38424981      -0.00000000  T       0.00000000       0.00000000       0.00000000
Mo      18.85717786      70.63985758       0.00000000  T       0.00000000       0.00000000       0.00000000
Mo      20.43901416      70.64557709       2.25049301  T       0.00000000       0.00000000       0.00000000
Mo      18.81639832      72.90195620       2.25049301  T       0.00000000       0.00000000       0.00000000
Mo      20.39695180      72.90852431      -0.00000000  T       0.00000000       0.00000000       0.00000000
Mo      18.77737746      75.16534072       0.00000000  T       0.00000000       0.00000000       0.00000000
Mo      20.35686324      75.17278533       2.25049301  T       0.00000000       0.00000000       0.00000000
Mo      18.74031101      77.42972737       2.25049301  T       0.00000000       0.00000000       0.00000000
Mo      20.31895738      77.43803505      -0.00000000  T       0.00000000       0.00000000       0.00000000
Mo      20.28339481      79.70394427       2.25049301  T       0.00000000       0.00000000       0.00000000
Mo      20.25028162      81.97019483      -0.00000000  T       0.00000000       0.00000000       0.00000000
Mo      21.19549581      30.24946023       2.25049301  T       0.00000000       0.00000000       0.00000000
Mo      19.56212377      32.47292725       2.25049301  T       0.00000000       0.00000000       0.00000000
Mo      21.16764494      32.48393481      -0.00000000  T       0.00000000       0.00000000       0.00000000
Mo      19.53182659      34.70771587       0.00000000  T       0.00000000       0.00000000       0.00000000
Mo      21.13722110      34.71809962       2.25049301  T       0.00000000       0.00000000       0.00000000
Mo      19.49916775      36.94258243       2.25049301  T       0.00000000       0.00000000       0.00000000
Mo      21.10421459      36.95222075      -0.00000000  T       0.00000000       0.00000000       0.00000000
Mo      19.46421502      39.17780862       0.00000000  T       0.00000000       0.00000000       0.00000000
Mo      21.06867654      39.18660445       2.25049301  T       0.00000000       0.00000000       0.00000000
Mo      19.42708910      41.41369515       2.25049301  T       0.00000000       0.00000000       0.00000000
Mo      21.03072116      41.42158513      -0.00000000  T       0.00000000       0.00000000       0.00000000
Mo      19.38795994      43.65054848       0.00000000  T       0.00000000       0.00000000       0.00000000
Mo      20.99052302      43.65750988       2.25049301  T       0.00000000       0.00000000       0.00000000
Mo      19.34703979      45.88866682       2.25049301  T       0.00000000       0.00000000       0.00000000
Mo      20.94830971      45.89472134      -0.00000000  T       0.00000000       0.00000000       0.00000000
Mo      19.30457407      48.12832675       0.00000000  T       0.00000000       0.00000000       0.00000000
Mo      20.90435118      48.13354074       2.25049301  T       0.00000000       0.00000000       0.00000000
Mo      19.26083160      50.36977188       2.25049301  T       0.00000000       0.00000000       0.00000000
Mo      20.85894773      50.37425317      -0.00000000  T       0.00000000       0.00000000       0.00000000
Mo      19.21609549      52.61320411       0.00000000  T       0.00000000       0.00000000       0.00000000
Mo      20.81241850      52.61709612       2.25049301  T       0.00000000       0.00000000       0.00000000
Mo      19.17065595      54.85877778       2.25049301  T       0.00000000       0.00000000       0.00000000
Mo      20.76509203      54.86225161      -0.00000000  T       0.00000000       0.00000000       0.00000000
Mo      19.12480521      57.10659621       0.00000000  T       0.00000000       0.00000000       0.00000000
Mo      20.71729974      57.10984165       2.25049301  T       0.00000000       0.00000000       0.00000000
Mo      22.25983516      59.36328345       2.25049301  T       0.00000000       0.00000000       0.00000000
Mo      23.85021324      59.36679504      -0.00000000  T       0.00000000       0.00000000       0.00000000
Mo      22.20999609      61.61605227       0.00000000  T       0.00000000       0.00000000       0.00000000
Mo      23.79807731      61.61978374       2.25049301  T       0.00000000       0.00000000       0.00000000
Mo      22.16074598      63.87146229       2.25049301  T       0.00000000       0.00000000       0.00000000
Mo      23.74661666      63.87565573      -0.00000000  T       0.00000000       0.00000000       0.00000000
Mo      22.11244794      66.12936663       0.00000000  T       0.00000000       0.00000000       0.00000000
Mo      23.69624627      66.13423516       2.25049301  T       0.00000000       0.00000000       0.00000000
Mo      22.06545518      68.38955219       2.25049301  T       0.00000000       0.00000000       0.00000000
Mo      23.64736826      68.39526771      -0.00000000  T       0.00000000       0.00000000       0.00000000
Mo      22.02010418      70.65174663       0.00000000  T       0.00000000       0.00000000       0.00000000
Mo      23.60036282      70.65842998       2.25049301  T       0.00000000       0.00000000       0.00000000
Mo      21.97670487      72.91562889       2.25049301  T       0.00000000       0.00000000       0.00000000
Mo      23.55557534      72.92334356      -0.00000000  T       0.00000000       0.00000000       0.00000000
Mo      21.93552882      75.18084327       0.00000000  T       0.00000000       0.00000000       0.00000000
Mo      23.51330142      75.18959361       2.25049301  T       0.00000000       0.00000000       0.00000000
Mo      21.89679724      77.44701654       2.25049301  T       0.00000000       0.00000000       0.00000000
Mo      23.47377243      77.45675118      -0.00000000  T       0.00000000       0.00000000       0.00000000
Mo      21.86067111      79.71377677       0.00000000  T       0.00000000       0.00000000       0.00000000
Mo      23.43714453      79.72439668       2.25049301  T       0.00000000       0.00000000       0.00000000
Mo      21.82724513      81.98077155       2.25049301  T       0.00000000       0.00000000       0.00000000
Mo      23.40349355      81.99214185      -0.00000000  T       0.00000000       0.00000000       0.00000000
Mo      21.79654702      84.24768369       0.00000000  T       0.00000000       0.00000000       0.00000000
Mo      23.37281685      84.25964717       2.25049301  T       0.00000000       0.00000000       0.00000000
Mo      23.34504143      86.52663309      -0.00000000  T       0.00000000       0.00000000       0.00000000
Mo      24.43242259      28.04017452      -0.00000000  T       0.00000000       0.00000000       0.00000000
Mo      22.80145231      30.26168222       0.00000000  T       0.00000000       0.00000000       0.00000000
Mo      24.40789324      30.27466620       2.25049301  T       0.00000000       0.00000000       0.00000000
Mo      22.77377720      32.49570615       2.25049301  T       0.00000000       0.00000000       0.00000000
Mo      24.38051769      32.50829376      -0.00000000  T       0.00000000       0.00000000       0.00000000
Mo      22.74332249      34.72926147       0.00000000  T       0.00000000       0.00000000       0.00000000
Mo      24.35014836      34.74126938       2.25049301  T       0.00000000       0.00000000       0.00000000
Mo      22.71004565      36.96262568       2.25049301  T       0.00000000       0.00000000       0.00000000
Mo      24.31670003      36.97387711      -0.00000000  T       0.00000000       0.00000000       0.00000000
Mo      22.67397351      39.19612899       0.00000000  T       0.00000000       0.00000000       0.00000000
Mo      24.28016529      39.20646886       2.25049301  T       0.00000000       0.00000000       0.00000000
Mo      22.63520767      41.43014176       2.25049301  T       0.00000000       0.00000000       0.00000000
Mo      24.24062453      41.43945232      -0.00000000  T       0.00000000       0.00000000       0.00000000
Mo      22.59392356      43.66505684       0.00000000  T       0.00000000       0.00000000       0.00000000
Mo      24.19824819      43.67327120       2.25049301  T       0.00000000       0.00000000       0.00000000
Mo      22.55036322      45.90126864       2.25049301  T       0.00000000       0.00000000       0.00000000
Mo      24.15067315      45.90808862       0.00000000  F      -0.00033007      -0.00000498       0.00000000
Mo      22.50159467      48.13907825      -0.00000000  F      -0.00031466      -0.00000711       0.00000000
Mo      24.10298898      48.14485315       2.25049301  F       0.00013333       0.00007978      -0.00000000
Mo      22.45530611      50.37907515       2.25049301  F      -0.00025667      -0.00015363       0.00000000
Mo      24.05401282      50.38321457      -0.00000000  F       0.00024326       0.00004462       0.00000000
Mo      22.40734443      52.62091829      -0.00000000  F      -0.00025466      -0.00002809       0.00000000
Mo      24.00373165      52.62467984       2.25049301  F       0.00027122       0.00001950      -0.00000000
Mo      22.35791382      54.86572169       2.25049301  F      -0.00024355      -0.00003684       0.00000000
Mo      23.95220038      54.86880072       0.00000000  F       0.00014205       0.00003122      -0.00000000
Mo      22.30885186      57.11353992       0.00000000  F      -0.00010727       0.00023917      -0.00000000
Mo      23.90023403      57.11591258       2.25049301  F       0.00009477      -0.00005679      -0.00000000
Mo      25.43788888      59.36859394       2.25049301  F       0.00032471      -0.00011972       0.00000000
Mo      27.02681443      59.37196698      -0.00000000  F      -0.00005484       0.00002411      -0.00000000
Mo      25.38329197      61.62248403      -0.00000000  F       0.00034371       0.00010215       0.00000000
Mo      26.96914836      61.62623237       2.25049301  F       0.00011568       0.00023181      -0.00000000
Mo      25.32897624      63.87938825       2.25049301  F       0.00026259       0.00019962      -0.00000000
Mo      26.91214138      63.88419252       0.00000000  F       0.00011584       0.00030665      -0.00000000
Mo      25.27579459      66.13915184       0.00000000  F       0.00013280       0.00024840       0.00000000
Mo      26.85665491      66.14530435       2.25049301  F       0.00002718       0.00043417      -0.00000000
Mo      25.22398951      68.40180776       2.25049301  F      -0.00008262       0.00029400       0.00000000
Mo      26.80368636      68.40842306       0.00000000  F       0.00020719       0.00012645      -0.00000000
Mo      25.17969304      70.66570311       0.00000000  T       0.00000000       0.00000000       0.00000000
Mo      26.75397149      70.67435129       2.25049301  F       0.00018701       0.00006101      -0.00000000
Mo      25.13347189      72.93175467       2.25049301  T       0.00000000       0.00000000       0.00000000
Mo      26.71029353      72.94096380      -0.00000000  T       0.00000000       0.00000000       0.00000000
Mo      25.09010312      75.19912735       0.00000000  T       0.00000000       0.00000000       0.00000000
Mo      26.66585167      75.20954896       2.25049301  T       0.00000000       0.00000000       0.00000000
Mo      25.04982423      77.46732788       2.25049301  T       0.00000000       0.00000000       0.00000000
Mo      26.62489540      77.47884558      -0.00000000  T       0.00000000       0.00000000       0.00000000
Mo      25.01277885      79.73588446       0.00000000  T       0.00000000       0.00000000       0.00000000
Mo      26.58754459      79.74832591       2.25049301  T       0.00000000       0.00000000       0.00000000
Mo      24.97901374      82.00437254       2.25049301  T       0.00000000       0.00000000       0.00000000
Mo      26.55380321      82.01753088      -0.00000000  T       0.00000000       0.00000000       0.00000000
Mo      24.94848475      84.27243363       0.00000000  T       0.00000000       0.00000000       0.00000000
Mo      26.52357175      84.28608895       2.25049301  T       0.00000000       0.00000000       0.00000000
Mo      24.92107035      86.53978519       2.25049301  T       0.00000000       0.00000000       0.00000000
Mo      26.49666803      86.55372308      -0.00000000  T       0.00000000       0.00000000       0.00000000
Mo      26.47285182      88.82024715       2.25049301  T       0.00000000       0.00000000       0.00000000
Mo      26.05987225      25.81853573       0.00000000  T       0.00000000       0.00000000       0.00000000
Mo      27.66557079      25.83297421       2.25049301  T       0.00000000       0.00000000       0.00000000
Mo      26.03871081      28.05407704       2.25049301  T       0.00000000       0.00000000       0.00000000
Mo      27.64525299      28.06867624      -0.00000000  T       0.00000000       0.00000000       0.00000000
Mo      26.01478534      30.28844120       0.00000000  T       0.00000000       0.00000000       0.00000000
Mo      27.62208009      30.30302667       2.25049301  T       0.00000000       0.00000000       0.00000000
Mo      25.98785189      32.52174742       2.25049301  T       0.00000000       0.00000000       0.00000000
Mo      27.59575033      32.53611113      -0.00000000  T       0.00000000       0.00000000       0.00000000
Mo      25.95770724      34.75419301       0.00000000  T       0.00000000       0.00000000       0.00000000
Mo      27.56599494      34.76810129       2.25049301  T       0.00000000       0.00000000       0.00000000
Mo      25.92421176      36.98606119       2.25049301  T       0.00000000       0.00000000       0.00000000
Mo      27.53260637      36.99926917      -0.00000000  T       0.00000000       0.00000000       0.00000000
Mo      25.88731110      39.21772108       0.00000000  T       0.00000000       0.00000000       0.00000000
Mo      27.49325924      39.22788142       2.25049301  F       0.00003713      -0.00024250      -0.00000000
Mo      25.84413275      41.44829863       2.25049301  F      -0.00012635      -0.00028833       0.00000000
Mo      27.45123823      41.45811410       0.00000000  F       0.00019747      -0.00019989      -0.00000000
Mo      25.80070587      43.68107805      -0.00000000  F       0.00012237      -0.00005022       0.00000000
Mo      27.40571419      43.68883755       2.25049301  F       0.00053785      -0.00042160      -0.00000000
Mo      25.75360987      45.91490387       2.25049301  F       0.00027604       0.00020757       0.00000000
Mo      27.35687538      45.92158310       0.00000000  F       0.00020850      -0.00052305      -0.00000000
Mo      25.70355969      48.15010214      -0.00000000  F       0.00040605       0.00012899       0.00000000
Mo      27.30565809      48.15600648       2.25049301  F      -0.00027911      -0.00058689      -0.00000000
Mo      25.65259455      50.38792430       2.25049301  F      -0.00000230      -0.00009823       0.00000000
Mo      27.25241930      50.39266001       0.00000000  F      -0.00014462      -0.00023048      -0.00000000
Mo      25.60011148      52.62843271      -0.00000000  F      -0.00014927      -0.00015479       0.00000000
Mo      27.19755118      52.63233505       2.25049301  F      -0.00006234       0.00002188       0.00000000
Mo      25.54643787      54.87198455       2.25049301  F      -0.00027015      -0.00008295       0.00000000
Mo      27.14123686      54.87520726       0.00000000  F       0.00000678       0.00010743       0.00000000
Mo      25.49218068      57.11857178      -0.00000000  F      -0.00009318      -0.00015398       0.00000000
Mo      27.08410477      57.12163986       2.25049301  F      -0.00006134       0.00002692      -0.00000000
Mo      28.61495214      59.37570409       2.25049301  F      -0.00034600       0.00012354       0.00000000
Mo      30.20287571      59.37997872      -0.00000000  F      -0.00022475       0.00015390       0.00000000
Mo      28.55376326      61.63071879       0.00000000  F      -0.00028810       0.00034562       0.00000000
Mo      30.13791118      61.63588073       2.25049301  F      -0.00024871       0.00021042       0.00000000
Mo      28.49343964      63.88972472       2.25049301  F      -0.00027643       0.00048287       0.00000000
Mo      30.07417620      63.89613318       0.00000000  F      -0.00036972       0.00019592       0.00000000
Mo      28.43525427      66.15207261      -0.00000000  F      -0.00049080       0.00032095       0.00000000
Mo      30.01298508      66.16007555       2.25049301  F      -0.00052465       0.00030367      -0.00000000
Mo      28.38003858      68.41716483       2.25049301  F      -0.00021908       0.00022106      -0.00000000
Mo      29.95562047      68.42674738       0.00000000  F      -0.00054109       0.00031269       0.00000000
Mo      28.32955920      70.68395306       0.00000000  F       0.00039448      -0.00005926       0.00000000
Mo      29.90269218      70.69568683       2.25049301  F      -0.00005258       0.00013300      -0.00000000
Mo      28.28200022      72.95292384       2.25049301  F       0.00009995       0.00008126       0.00000000
Mo      29.85446520      72.96612795      -0.00000000  F       0.00033588       0.00013731       0.00000000
Mo      28.23700386      75.22301548      -0.00000000  F      -0.00019720       0.00018536      -0.00000000
Mo      29.81003639      75.23650077       2.25049301  F       0.00007435       0.00006443      -0.00000000
Mo      28.19893331      77.49141303       2.25049301  T       0.00000000       0.00000000       0.00000000
Mo      29.76969977      77.50740189       0.00000000  F      -0.00027257       0.00041515      -0.00000000
Mo      28.16142280      79.76181058       0.00000000  T       0.00000000       0.00000000       0.00000000
Mo      29.73441011      79.77642884       2.25049301  T       0.00000000       0.00000000       0.00000000
Mo      28.12787398      82.03168179       2.25049301  T       0.00000000       0.00000000       0.00000000
Mo      29.70125723      82.04688388      -0.00000000  T       0.00000000       0.00000000       0.00000000
Mo      28.09811514      84.30065165       0.00000000  T       0.00000000       0.00000000       0.00000000
Mo      29.67217205      84.31614859       2.25049301  T       0.00000000       0.00000000       0.00000000
Mo      28.07188988      86.56846015       2.25049301  T       0.00000000       0.00000000       0.00000000
Mo      29.64680962      86.58399496      -0.00000000  T       0.00000000       0.00000000       0.00000000
Mo      28.04888918      88.83495153       0.00000000  T       0.00000000       0.00000000       0.00000000
Mo      29.62478373      88.85031080       2.25049301  T       0.00000000       0.00000000       0.00000000
Mo      28.02878031      91.10005651       2.25049301  T       0.00000000       0.00000000       0.00000000
Mo      29.60569955      91.11507373      -0.00000000  T       0.00000000       0.00000000       0.00000000
Mo      29.28809445      23.61045651       2.25049301  T       0.00000000       0.00000000       0.00000000
Mo      30.89269637      23.62536026      -0.00000000  T       0.00000000       0.00000000       0.00000000
Mo      29.27131396      25.84795520       0.00000000  T       0.00000000       0.00000000       0.00000000
Mo      30.87701000      25.86342514       2.25049301  T       0.00000000       0.00000000       0.00000000
Mo      29.25197277      28.08395448       2.25049301  T       0.00000000       0.00000000       0.00000000
Mo      30.85877743      28.09987522      -0.00000000  T       0.00000000       0.00000000       0.00000000
Mo      29.22971121      30.31842858       0.00000000  T       0.00000000       0.00000000       0.00000000
Mo      30.83759226      30.33463469       2.25049301  T       0.00000000       0.00000000       0.00000000
Mo      29.20416496      32.55141906       2.25049301  T       0.00000000       0.00000000       0.00000000
Mo      30.81302523      32.56769030      -0.00000000  T       0.00000000       0.00000000       0.00000000
Mo      29.17499014      34.78305894       0.00000000  T       0.00000000       0.00000000       0.00000000
Mo      30.78462928      34.79678291       2.25049301  F       0.00012137       0.00010358      -0.00000000
Mo      29.14058565      37.01080576       2.25049301  F       0.00022918       0.00005069       0.00000000
Mo      30.75095053      37.02428197      -0.00000000  F       0.00051657       0.00014252       0.00000000
Mo      29.10192797      39.23928455       0.00000000  F       0.00054890      -0.00004744      -0.00000000
Mo      30.71118832      39.25107279       2.25049301  F       0.00054941      -0.00006622      -0.00000000
Mo      29.05826349      41.46763830       2.25049301  F       0.00049843      -0.00041072       0.00000000
Mo      30.66711166      41.47845262       0.00000000  F       0.00025702      -0.00041532      -0.00000000
Mo      29.01158344      43.69749234       0.00000000  F       0.00004827      -0.00085712      -0.00000000
Mo      30.61902338      43.70665139       2.25049301  F       0.00000198      -0.00077248       0.00000000
Mo      28.96146680      45.92874320       2.25049301  F      -0.00027314      -0.00102744      -0.00000000
Mo      30.56730327      45.93646358      -0.00000000  F      -0.00004786      -0.00083300       0.00000000
Mo      28.90840926      48.16196860      -0.00000000  F      -0.00016863      -0.00079822       0.00000000
Mo      30.51239863      48.16828394       2.25049301  F      -0.00035847      -0.00068955      -0.00000000
Mo      28.85297129      50.39761311       2.25049301  F       0.00019576      -0.00019618       0.00000000
Mo      30.45456265      50.40279663      -0.00000000  F      -0.00021162      -0.00041845       0.00000000
Mo      28.79548719      52.63634286       0.00000000  F       0.00015971       0.00005943      -0.00000000
Mo      30.39426260      52.64065829       2.25049301  F      -0.00042540      -0.00012330      -0.00000000
Mo      28.73631819      54.87868676       2.25049301  F       0.00002712       0.00018351       0.00000000
Mo      30.33185067      54.88249426       0.00000000  F      -0.00069112       0.00012271      -0.00000000
Mo      28.67597436      57.12503139       0.00000000  F      -0.00025449       0.00007429      -0.00000000
Mo      30.26780676      57.12883409       2.25049301  F      -0.00051207       0.00020035       0.00000000
Mo      31.79016804      59.38474100       2.25049301  F       0.00002283       0.00021687       0.00000000
Mo      33.37692436      59.39000659      -0.00000000  F       0.00019700      -0.00000832       0.00000000
Mo      31.72098185      61.64172792       0.00000000  F       0.00002269      -0.00002255      -0.00000000
Mo      33.30312603      61.64816872       2.25049301  F      -0.00027666       0.00022142       0.00000000
Mo      31.65342179      63.90342939       2.25049301  F      -0.00006571       0.00007524      -0.00000000
Mo      33.23136526      63.91163400       0.00000000  F      -0.00020491       0.00001223      -0.00000000