503
Lattice="93.55123762572887 0.0 0.0 0.0 81.0177483393558 0.0 0.0 0.0 2.7562797713977907" Properties=species:S:1:pos:R:3:fix_mask:L:1:forces:R:3 energy=-5282.544592827758 pbc="T T T"
Mo      20.81596816      28.50796322      -0.27635190  T       0.00000000       0.00000000       0.00000000
Mo      19.51339914      30.75827999       0.60515571  T       0.00000000       0.00000000       0.00000000
Mo      18.20954595      33.00830422      -1.26869644  T       0.00000000       0.00000000       0.00000000
Mo      20.80954314      33.00844639      -0.34005912  T       0.00000000       0.00000000       0.00000000
Mo      19.50453845      35.25838040       0.54044505  T       0.00000000       0.00000000       0.00000000
Mo      18.19892104      37.50843468      -1.33339301  T       0.00000000       0.00000000       0.00000000
Mo      20.79833435      37.50847611      -0.41039468  T       0.00000000       0.00000000       0.00000000
Mo      16.89324596      39.75872287      -0.44861744  T       0.00000000       0.00000000       0.00000000
Mo      19.49207811      39.75872535       0.47112431  T       0.00000000       0.00000000       0.00000000
Mo      18.18625591      42.00925913       1.35569845  T       0.00000000       0.00000000       0.00000000
Mo      20.78449844      42.00927028       2.27231790  T       0.00000000       0.00000000       0.00000000
Mo      19.47901437      44.26005611       3.15738425  T       0.00000000       0.00000000       0.00000000
Mo      18.17466127      46.51094934       1.28984856  T       0.00000000       0.00000000       0.00000000
Mo      20.77205060      46.51106896       2.20049435  T       0.00000000       0.00000000       0.00000000
Mo      19.46875392      48.76197248       3.09090941  T       0.00000000       0.00000000       0.00000000
Mo      20.76397196      51.01284929       2.13448663  T       0.00000000       0.00000000       0.00000000
Mo      26.01160288      19.49880966      -1.04522298  T       0.00000000       0.00000000       0.00000000
Mo      28.60800065      19.49569141      -0.09891462  T       0.00000000       0.00000000       0.00000000
Mo      24.71458001      21.75256694      -0.16324534  T       0.00000000       0.00000000       0.00000000
Mo      27.31172595      21.75041403       0.78090914  T       0.00000000       0.00000000       0.00000000
Mo      26.01452869      24.00406623      -1.09675471  T       0.00000000       0.00000000       0.00000000
Mo      28.61188995      24.00210057      -0.15140365  T       0.00000000       0.00000000       0.00000000
Mo      23.41649207      24.00531611       0.71799597  T       0.00000000       0.00000000       0.00000000
Mo      22.11701136      26.25706227      -1.15736172  T       0.00000000       0.00000000       0.00000000
Mo      24.71591921      26.25652029      -0.21880987  T       0.00000000       0.00000000       0.00000000
Mo      27.31434370      26.25553990       0.72325950  T       0.00000000       0.00000000       0.00000000
Mo      26.01492316      28.50757720      -1.15888848  T       0.00000000       0.00000000       0.00000000
Mo      28.61386520      28.50691911      -0.21656025  T       0.00000000       0.00000000       0.00000000
Mo      23.41555949      28.50786974       0.65898735  T       0.00000000       0.00000000       0.00000000
Mo      22.11336558      30.75839050      -1.21912566  T       0.00000000       0.00000000       0.00000000
Mo      24.71333545      30.75845352      -0.28461518  T       0.00000000       0.00000000       0.00000000
Mo      27.31320972      30.75840174       0.65315377  T       0.00000000       0.00000000       0.00000000
Mo      26.00995586      33.00876618      -1.23277749  T       0.00000000       0.00000000       0.00000000
Mo      28.60942651      33.00890978      -0.29639758  F      -0.00000020      -0.00000020      -0.00000002
Mo      23.40968303      33.00860399       0.59047851  T       0.00000000       0.00000000       0.00000000
Mo      22.10444605      35.25849401      -1.28918999  T       0.00000000       0.00000000       0.00000000
Mo      24.70455978      35.25863513      -0.36087482  T       0.00000000       0.00000000       0.00000000
Mo      27.30491823      35.25880950       0.56969242  T       0.00000000       0.00000000       0.00000000
Mo      25.99765711      37.50860263      -1.31771908  T       0.00000000       0.00000000       0.00000000
Mo      28.59698939      37.50858989      -0.39448014  F      -0.00000005      -0.00000037       0.00000001
Mo      23.39789754      37.50853024       0.51348747  T       0.00000000       0.00000000       0.00000000
Mo      22.09094768      39.75872862      -1.36521617  T       0.00000000       0.00000000       0.00000000
Mo      24.68986720      39.75873305      -0.44501287  T       0.00000000       0.00000000       0.00000000
Mo      27.28789741      39.75848981       0.47303596  F      -0.00000014       0.00000009      -0.00000006
Mo      25.98070344      42.00930536       1.34776162  T       0.00000000       0.00000000       0.00000000
Mo      28.57701300      42.00922243       2.25737815  F      -0.00000009       0.00000042       0.00000017
Mo      23.38265725      42.00928509       3.18848558  T       0.00000000       0.00000000       0.00000000
Mo      22.07665601      44.26012520       1.31411407  T       0.00000000       0.00000000       0.00000000
Mo      24.67410422      44.26021505       2.22587523  T       0.00000000       0.00000000       0.00000000
Mo      27.27045927      44.26051887       3.13337707  F      -0.00000010      -0.00000027       0.00000008
Mo      25.96626154      46.51138489       1.26016497  T       0.00000000       0.00000000       0.00000000
Mo      28.56180118      46.51192782       2.16112982  F       0.00000001      -0.00000013       0.00000001
Mo      23.36925893      46.51121326       3.10953224  T       0.00000000       0.00000000       0.00000000
Mo      22.06598609      48.76211981       1.24179171  T       0.00000000       0.00000000       0.00000000
Mo      24.66311754      48.76226430       2.14667063  T       0.00000000       0.00000000       0.00000000
Mo      27.26019720      48.76237348       3.04855159  T       0.00000000       0.00000000       0.00000000
Mo      25.95891823      51.01282908       1.18255363  T       0.00000000       0.00000000       0.00000000
Mo      28.55669913      51.01253415       2.07947700  T       0.00000000       0.00000000       0.00000000
Mo      23.36139520      51.01289461       3.03811915  T       0.00000000       0.00000000       0.00000000
Mo      22.06067389      53.26328312       1.17731181  T       0.00000000       0.00000000       0.00000000
Mo      24.65865253      53.26300095       2.07749067  T       0.00000000       0.00000000       0.00000000
Mo      27.25700369      53.26239649       2.97419993  T       0.00000000       0.00000000       0.00000000
Mo      25.95783184      55.51207757       1.11674005  T       0.00000000       0.00000000       0.00000000
Mo      28.55726938      55.51057724       2.00976571  T       0.00000000       0.00000000       0.00000000
Mo      23.35901959      55.51296715       2.97610527  T       0.00000000       0.00000000       0.00000000
Mo      24.65893740      57.76166686       2.01873607  T       0.00000000       0.00000000       0.00000000
Mo      27.25869697      57.75991502       2.91269546  T       0.00000000       0.00000000       0.00000000
Mo      25.96015111      60.00929176       1.06191798  T       0.00000000       0.00000000       0.00000000
Mo      28.56078344      60.00653560       1.95336290  T       0.00000000       0.00000000       0.00000000
Mo      27.26225502      62.25592845       2.86237900  T       0.00000000       0.00000000       0.00000000
Mo      33.79521091      14.97900483      -0.91230714  T       0.00000000       0.00000000       0.00000000
Mo      36.39066786      14.97310082       0.04249469  T       0.00000000       0.00000000       0.00000000
Mo      31.19974829      14.98438400       0.89209475  T       0.00000000       0.00000000       0.00000000
Mo      29.90386555      17.24021212      -0.98046550  T       0.00000000       0.00000000       0.00000000
Mo      32.49931098      17.23525437      -0.02909472  T       0.00000000       0.00000000       0.00000000
Mo      35.09447826      17.22938626       0.92587998  T       0.00000000       0.00000000       0.00000000
Mo      33.79892125      19.48619591      -0.95076955  T       0.00000000       0.00000000       0.00000000
Mo      36.39373406      19.47974234       0.00794020  T       0.00000000       0.00000000       0.00000000
Mo      31.20374964      19.49153073       0.85119893  T       0.00000000       0.00000000       0.00000000
Mo      29.90813619      21.74731628      -1.02728904  T       0.00000000       0.00000000       0.00000000
Mo      32.50373942      21.74299337      -0.07463000  T       0.00000000       0.00000000       0.00000000
Mo      35.09859435      21.73723028       0.88318915  T       0.00000000       0.00000000       0.00000000
Mo      33.80386350      23.99463675      -1.00208803  T       0.00000000       0.00000000       0.00000000
Mo      36.39695600      23.98687282      -0.03418507  F       0.00000010       0.00000017      -0.00000005
Mo      31.20838319      23.99909020       0.79860071  T       0.00000000       0.00000000       0.00000000
Mo      29.91204729      26.25384673      -1.08653516  T       0.00000000       0.00000000       0.00000000
Mo      32.50874193      26.25102459      -0.13449239  T       0.00000000       0.00000000       0.00000000
Mo      35.10242812      26.24559709       0.83300899  F      -0.00000001       0.00000034      -0.00000006
Mo      33.80691335      28.50258351      -1.06221912  F      -0.00000010      -0.00000030      -0.00000000
Mo      36.40070006      28.49553624      -0.09023447  F       0.00000024      -0.00000012      -0.00000007
Mo      31.21091642      28.50513378       0.73396351  F       0.00000025       0.00000013      -0.00000003
Mo      29.91176564      30.75803095      -1.15916971  F      -0.00000020       0.00000014       0.00000021
Mo      32.50944553      30.75694985      -0.20646718  F       0.00000003       0.00000003       0.00000009
Mo      35.10544470      30.75352383       0.75810677  F       0.00000014       0.00000004      -0.00000013
Mo      33.80699625      33.00787459      -1.15709110  F       0.00000025      -0.00000040      -0.00000013
Mo      36.40406305      33.00479781      -0.18886889  F       0.00000032      -0.00000028       0.00000004
Mo      31.20884389      33.00891061       0.64619909  F      -0.00000005      -0.00000014       0.00000020
Mo      29.90445758      35.25909226      -1.25511647  F      -0.00000053      -0.00000011      -0.00000004
Mo      32.50370394      35.25907424      -0.31640066  F       0.00000013      -0.00000009      -0.00000005
Mo      35.10314424      35.25862078       0.63358030  F       0.00000026      -0.00000008      -0.00000033
Mo      33.79531184      37.50908451      -1.29376166  F      -0.00000021      -0.00000046      -0.00000011
Mo      36.39532327      37.50910054      -0.35318051  F       0.00000013      -0.00000016      -0.00000015
Mo      31.19570543      37.50885684       0.53132839  F      -0.00000008      -0.00000012       0.00000013
Mo      29.88564629      39.75862106      -1.36693887  F       0.00000002      -0.00000047       0.00000007
Mo      32.48339668      39.75894544      -0.44965720  F       0.00000002      -0.00000052       0.00000017
Mo      35.08171488      39.75916247       0.46942606  F       0.00000021      -0.00000010      -0.00000012
Mo      33.76713960      42.01034687       1.31555901  F      -0.00000017       0.00000013      -0.00000009
Mo      36.36129287      42.01091911       2.21788240  F       0.00000018      -0.00000044      -0.00000033
Mo      31.17211330      42.00967763       3.16560686  F      -0.00000004      -0.00000018      -0.00000009
Mo      29.86552051      44.26083500       1.28065726  F      -0.00000021       0.00000005      -0.00000016
Mo      32.45955033      44.26194187       2.18037791  F       0.00000036      -0.00000026      -0.00000052
Mo      35.05338736      44.26318110       3.07475719  F      -0.00000040      -0.00000040      -0.00000027
Mo      33.75181662      46.51389598       1.19249065  F      -0.00000010      -0.00000014      -0.00000036
Mo      36.34742675      46.51487548       2.07507153  F      -0.00000028      -0.00000017      -0.00000018
Mo      31.15710246      46.51270026       3.05772332  F       0.00000028       0.00000001      -0.00000028
Mo      29.85640917      48.76304986       1.18739597  F      -0.00000019       0.00000003      -0.00000008
Mo      32.45296059      48.76338303       2.07741644  F      -0.00000001      -0.00000007      -0.00000030
Mo      35.04986108      48.76365544       2.96021124  F       0.00000039      -0.00000014      -0.00000021
Mo      33.75298353      51.01170676       1.09719841  F       0.00000002      -0.00000050      -0.00000019
Mo      36.35279687      51.00968256       1.97270571  F       0.00000039      -0.00000010      -0.00000006
Mo      31.15430155      51.01250149       2.96948099  F      -0.00000022      -0.00000008      -0.00000019
Mo      29.85597084      53.26122906       1.11019455  T       0.00000000       0.00000000       0.00000000
Mo      32.45542352      53.25993665       1.99570199  F      -0.00000010       0.00000055      -0.00000003
Mo      35.05636663      53.25697391       2.87451255  F       0.00000031       0.00000013      -0.00000004
Mo      33.75876826      55.50461296       1.02352101  F      -0.00000011       0.00000013      -0.00000016
Mo      36.36138788      55.49945520       1.89824354  F      -0.00000031       0.00000008       0.00000019
Mo      31.15757674      55.50812629       2.89794587  T       0.00000000       0.00000000       0.00000000
Mo      29.85922097      57.75726745       1.04625767  T       0.00000000       0.00000000       0.00000000
Mo      32.46065407      57.75338023       1.93116479  T       0.00000000       0.00000000       0.00000000
Mo      35.06303005      57.74791098       2.81030507  T       0.00000000       0.00000000       0.00000000
Mo      33.76425930      59.99757523       0.96709369  T       0.00000000       0.00000000       0.00000000
Mo      36.36691204      59.99108414       1.84469563  T       0.00000000       0.00000000       0.00000000
Mo      31.16215687      60.00270456       2.84070237  T       0.00000000       0.00000000       0.00000000
Mo      29.86353462      62.25219453       0.99559367  T       0.00000000       0.00000000       0.00000000
Mo      32.46538759      62.24738320       1.88124141  T       0.00000000       0.00000000       0.00000000
Mo      35.06766122      62.24147490       2.76278092  T       0.00000000       0.00000000       0.00000000
Mo      33.76839762      64.49188203       0.92470137  T       0.00000000       0.00000000       0.00000000
Mo      36.37045903      64.48574975       1.80610364  T       0.00000000       0.00000000       0.00000000
Mo      31.16643953      64.49730140       2.79618914  T       0.00000000       0.00000000       0.00000000
Mo      32.46912433      66.74230199       1.84298971  T       0.00000000       0.00000000       0.00000000
Mo      35.07090111      66.73669884       2.72767527  T       0.00000000       0.00000000       0.00000000
Mo      37.68752777      12.71764690      -0.84461859  T       0.00000000       0.00000000       0.00000000
Mo      40.28377624      12.71246246       0.11131674  T       0.00000000       0.00000000       0.00000000
Mo      42.88047382      12.70819200       1.06872299  T       0.00000000       0.00000000       0.00000000
Mo      41.58251843      14.96166837      -0.79672230  T       0.00000000       0.00000000       0.00000000
Mo      44.17919883      14.95749113       0.16447365  T       0.00000000       0.00000000       0.00000000
Mo      38.98636779      14.96711149       0.99993938  T       0.00000000       0.00000000       0.00000000
Mo      37.68964574      17.22290507      -0.87192400  T       0.00000000       0.00000000       0.00000000
Mo      40.28513596      17.21640762       0.08966518  T       0.00000000       0.00000000       0.00000000
Mo      42.88119666      17.21074977       1.05371935  T       0.00000000       0.00000000       0.00000000
Mo      41.58381830      19.46550304      -0.81867507  T       0.00000000       0.00000000       0.00000000
Mo      44.17980369      19.45973938       0.15080635  T       0.00000000       0.00000000       0.00000000
Mo      38.98855757      19.47256615       0.97091579  T       0.00000000       0.00000000       0.00000000
Mo      37.69297436      21.73006355      -0.90978784  T       0.00000000       0.00000000       0.00000000
Mo      40.28714820      21.72043487       0.06392208  F       0.00000011      -0.00000006       0.00000001
Mo      42.88251920      21.71246761       1.03814205  F       0.00000005      -0.00000012       0.00000018
Mo      41.58510824      23.96710077      -0.83787066  F       0.00000013       0.00000057       0.00000007
Mo      44.18112924      23.95909019       0.14325935  F       0.00000052       0.00000039       0.00000021
Mo      38.99084324      23.97767871       0.93959514  F       0.00000040       0.00000003      -0.00000015
Mo      37.69511880      26.23583374      -0.94839421  F      -0.00000016      -0.00000011      -0.00000038
Mo      40.28829001      26.22392809       0.03337804  F       0.00000031      -0.00000011      -0.00000018
Mo      42.88295712      26.21234425       1.02028262  F       0.00000006      -0.00000016      -0.00000006
Mo      41.58582776      28.46980018      -0.87137854  F       0.00000032      -0.00000037      -0.00000012
Mo      44.18075478      28.45730625       0.12688334  F      -0.00000014      -0.00000059      -0.00000014
Mo      38.99309373      28.48408216       0.89282001  F      -0.00000016      -0.00000023      -0.00000007
Mo      37.69944584      30.74598072      -1.01889137  F       0.00000053      -0.00000052       0.00000007
Mo      40.29098752      30.73202772      -0.02408052  F       0.00000019      -0.00000020      -0.00000013
Mo      42.88322965      30.71488828       0.98309402  F      -0.00000013      -0.00000029      -0.00000002
Mo      41.58872490      32.97975360      -0.94371843  F       0.00000031      -0.00000034       0.00000001
Mo      44.17983534      32.95891902       0.08624411  F       0.00000000       0.00000004      -0.00000012
Mo      38.99831801      32.99699697       0.79986093  F      -0.00000001      -0.00000048       0.00000013
Mo      37.70140533      35.25609512      -1.15369214  F      -0.00000033      -0.00000032      -0.00000020
Mo      40.29663887      35.24895695      -0.15427992  F       0.00000016      -0.00000029      -0.00000001
Mo      42.88515570      35.22739603       0.88728413  F      -0.00000005      -0.00000011      -0.00000000
Mo      41.59252079      37.50209239      -1.14536202  F       0.00000033      -0.00000059      -0.00000001
Mo      44.18001647      37.47682560      -0.04816445  F      -0.00000008      -0.00000018       0.00000015
Mo      38.99493167      37.50761664       0.60709419  F      -0.00000004      -0.00000018      -0.00000001
Mo      37.68130708      39.75921788      -1.36448014  F       0.00000018      -0.00000028      -0.00000011
Mo      40.28310236      39.75702074      -0.43159906  F      -0.00000021      -0.00000005       0.00000007
Mo      42.88696799      39.75566812       0.53244404  F       0.00000027      -0.00000044      -0.00000013
Mo      41.54629313      42.01196293       1.23009568  F      -0.00000083      -0.00000001       0.00000010
Mo      44.13748666      42.02278299       2.03103805  F       0.00000027      -0.00000019       0.00000042
Mo      38.95458551      42.01132813       3.11152644  F       0.00000030      -0.00000032      -0.00000026
Mo      37.64666546      44.26467097       1.20352620  F       0.00000017      -0.00000014      -0.00000020
Mo      40.24016810      44.26688335       2.07045247  F      -0.00000021      -0.00000029      -0.00000009
Mo      42.84181300      44.26336745       2.90271193  F      -0.00000055       0.00000008       0.00000008
Mo      41.54789936      46.51109030       1.03183005  F      -0.00000012       0.00000007      -0.00000001
Mo      44.15939306      46.49756195       1.83114624  F      -0.00000036       0.00000007       0.00000011
Mo      38.94493878      46.51512067       2.94376567  F      -0.00000001      -0.00000052      -0.00000006
Mo      37.64900248      48.76233380       1.07584141  F      -0.00000021       0.00000004       0.00000007
Mo      40.25199959      48.75705007       1.93085691  F       0.00000015      -0.00000032       0.00000016
Mo      42.86018157      48.74495657       2.75862238  F      -0.00000024       0.00000012      -0.00000000
Mo      41.56169356      50.99368041       0.92496121  F      -0.00000005      -0.00000018      -0.00000003
Mo      44.16939773      50.97941850       1.74586736  F       0.00000027       0.00000023       0.00000034
Mo      38.95561801      51.00418006       2.83584711  F      -0.00000060      -0.00000029      -0.00000021
Mo      37.65866773      53.25181952       0.98797800  F       0.00000010      -0.00000053      -0.00000030
Mo      40.26322470      53.24271120       1.84547726  F       0.00000028       0.00000009      -0.00000038
Mo      42.86871630      53.23080739       2.68741626  F       0.00000002       0.00000060       0.00000005
Mo      41.56876773      55.48194336       0.86416349  F       0.00000026      -0.00000018      -0.00000021
Mo      44.17189112      55.47287354       1.70918135  F       0.00000007      -0.00000021       0.00000012
Mo      38.96475051      55.49195590       2.76458184  F       0.00000017       0.00000027       0.00000002
Mo      37.66606362      57.74140445       0.92633310  F       0.00000031      -0.00000017       0.00000017
Mo      40.26944123      57.73247465       1.79220384  F      -0.00000030       0.00000010      -0.00000013
Mo      42.87180440      57.72407696       2.65026463  F      -0.00000039       0.00000005       0.00000015
Mo      41.57217491      59.97579643       0.82879523  T       0.00000000       0.00000000       0.00000000
Mo      44.17332193      59.96975515       1.69059384  F      -0.00000004       0.00000020       0.00000019
Mo      38.96972606      59.98353574       2.71718957  T       0.00000000       0.00000000       0.00000000
Mo      37.67006264      62.23470591       0.88392217  T       0.00000000       0.00000000       0.00000000
Mo      40.27220481      62.22768501       1.75757023  T       0.00000000       0.00000000       0.00000000
Mo      42.87374738      62.22139416       2.62815879  T       0.00000000       0.00000000       0.00000000
Mo      41.57374419      64.47338281       0.80370723  T       0.00000000       0.00000000       0.00000000
Mo      44.17456283      64.46871644       1.67738737  T       0.00000000       0.00000000       0.00000000
Mo      38.97233190      64.47934771       2.68436429  T       0.00000000       0.00000000       0.00000000
Mo      37.67253787      66.73082844       0.85342695  T       0.00000000       0.00000000       0.00000000
Mo      40.27381659      66.72521321       1.73317044  T       0.00000000       0.00000000       0.00000000
Mo      42.87460398      66.72050566       2.61113792  T       0.00000000       0.00000000       0.00000000
Mo      41.57469803      68.97225870       0.78612557  T       0.00000000       0.00000000       0.00000000
Mo      44.17501414      68.96879339       1.66652310  T       0.00000000       0.00000000       0.00000000
Mo      38.97395562      68.97689046       2.66084672  T       0.00000000       0.00000000       0.00000000
Mo      45.47758414      12.70536993      -0.72917418  T       0.00000000       0.00000000       0.00000000
Mo      48.07494156      12.70438230       0.22968998  T       0.00000000       0.00000000       0.00000000
Mo      50.67229898      12.70536993       1.18855414  T       0.00000000       0.00000000       0.00000000
Mo      49.37357700      14.95521560      -0.66722818  T       0.00000000       0.00000000       0.00000000
Mo      51.97068429      14.95749113       0.29490631  T       0.00000000       0.00000000       0.00000000
Mo      46.77630612      14.95521560       1.12660814  T       0.00000000       0.00000000       0.00000000
Mo      45.47787063      17.20686289      -0.73684555  T       0.00000000       0.00000000       0.00000000
Mo      48.07494156      17.20547533       0.22968998  T       0.00000000       0.00000000       0.00000000
Mo      50.67201248      17.20686289       1.19622551  T       0.00000000       0.00000000       0.00000000
Mo      49.37341364      19.45647663      -0.66259064  T       0.00000000       0.00000000       0.00000000
Mo      51.97007943      19.45973938       0.30857362  T       0.00000000       0.00000000       0.00000000
Mo      46.77646947      19.45647663       1.12197061  T       0.00000000       0.00000000       0.00000000
Mo      45.47923488      21.70724814      -0.74238197  F       0.00000001      -0.00000024       0.00000032
Mo      48.07623952      21.70552524       0.23405412  F      -0.00000009      -0.00000007       0.00000007
Mo      50.67289266      21.70805945       1.21028804  F       0.00000035       0.00000022       0.00000001
Mo      49.37523457      23.95623923      -0.64794506  F      -0.00000024       0.00000058       0.00000006
Mo      51.97109278      23.96203268       0.33373134  F       0.00000037       0.00000036       0.00000027
Mo      46.77820748      23.95520117       1.12566592  F       0.00000024       0.00000033      -0.00000000
Mo      45.47958064      26.20495506      -0.74632588  F       0.00000001      -0.00000011      -0.00000004
Mo      48.07699174      26.20367398       0.24458947  F       0.00000041      -0.00000041      -0.00000039
Mo      50.67335189      26.20884239       1.23506351  F      -0.00000014       0.00000026      -0.00000004
Mo      49.37528666      28.45523692      -0.62552650  F       0.00000026      -0.00000021      -0.00000018
Mo      51.96942222      28.46664516       0.37469832  F       0.00000008       0.00000017      -0.00000022
Mo      46.77804855      28.45181005       1.12837696  F      -0.00000001      -0.00000019      -0.00000001
Mo      45.47847084      30.70191116      -0.75831303  F       0.00000027      -0.00000047      -0.00000006
Mo      48.07691753      30.70078099       0.26034438  F       0.00000027      -0.00000013      -0.00000010
Mo      50.67175472      30.71333802       1.27815035  F       0.00000017       0.00000011      -0.00000015
Mo      49.37423439      32.95912570      -0.58443727  F      -0.00000035       0.00000007       0.00000002
Mo      51.96163231      32.98237932       0.45775206  F       0.00000007       0.00000026       0.00000030
Mo      46.77751811      32.94617427       1.12715787  F       0.00000037       0.00000004       0.00000006
Mo      45.47937284      35.20186942      -0.79874225  F      -0.00000013       0.00000008      -0.00000009
Mo      48.07736951      35.20317065       0.28863132  F       0.00000006       0.00000014       0.00000030
Mo      50.66250893      35.23660503       1.39168088  F      -0.00000010       0.00000045       0.00000019
Mo      49.36118092      37.49125429      -0.39865813  F      -0.00000014       0.00000021       0.00000014
Mo      51.96055145      37.49962689       0.69436073  F      -0.00000020       0.00000044       0.00000002
Mo      46.77009404      37.44227859       1.07677392  F       0.00000029      -0.00000009      -0.00000003
Mo      45.49788719      39.71363894      -1.03256167  F       0.00000009       0.00000055      -0.00000018
Mo      48.09718460      39.77506225       0.81447862  F      -0.00000049       0.00000031       0.00000025
Mo      50.69127874      39.75438893       1.80700938  F       0.00000032      -0.00000016       0.00000053
Mo      49.42428626      42.01568594       0.18839014  F      -0.00000017       0.00000005       0.00000001
Mo      52.01136525      42.01649186       1.06144310  F       0.00000045       0.00000003      -0.00000016
Mo      46.74379223      41.99451988       2.65082574  F      -0.00000019      -0.00000026      -0.00000021
Mo      45.46060187      44.25055081       0.89467229  F      -0.00000013      -0.00000018       0.00000031
Mo      48.08414942      44.23327513       1.45664342  F      -0.00000028      -0.00000005      -0.00000022
Mo      50.70867685      44.26522338       2.15001451  F      -0.00000011       0.00000022      -0.00000018
Mo      49.38508094      46.48659209       0.49532216  F      -0.00000022      -0.00000008      -0.00000004
Mo      52.00233935      46.50939556       1.27870146  F      -0.00000001       0.00000020      -0.00000008
Mo      46.77583571      46.47885706       2.54725623  F      -0.00000005      -0.00000038       0.00000000
Mo      45.47139790      48.72824097       0.78754987  F      -0.00000051      -0.00000034      -0.00000012
Mo      48.07867530      48.72560790       1.54223683  F       0.00000021      -0.00000035       0.00000009
Mo      50.68662714      48.73777714       2.32133365  F      -0.00000003      -0.00000007      -0.00000004
Mo      49.37917892      50.97567630       0.58288388  F       0.00000010      -0.00000015      -0.00000017
Mo      51.98560566      50.98812601       1.40141281  F      -0.00000023      -0.00000023       0.00000003
Mo      46.77445517      50.97180416       2.54380976  F      -0.00000022       0.00000030       0.00000018
Mo      45.47266801      53.22165256       0.75743299  F      -0.00000006      -0.00000012       0.00000046
Mo      48.07537604      53.22001945       1.57539863  F      -0.00000020       0.00000004       0.00000011
Mo      50.67884090      53.22652911       2.40027915  F       0.00000022       0.00000000       0.00000000