1296
Lattice="121.73607734184546 0.0 0.0 0.0 115.32891537648517 0.0 0.0 0.0 3.2035809826801436" Properties=species:S:1:pos:R:3:fix_mask:L:1:forces:R:3 energy=-16212.468574768587 pbc="T T T"
W       15.36474260      48.51283754       1.60179049  T       0.00000000       0.00000000       0.00000000
W       15.31355805      51.70897590       1.60179049  T       0.00000000       0.00000000       0.00000000
W       15.26177952      54.90815778       1.60179049  T       0.00000000       0.00000000       0.00000000
W       18.41270502      58.11696485       1.60179049  T       0.00000000       0.00000000       0.00000000
W       18.35703864      61.32276581       1.60179049  T       0.00000000       0.00000000       0.00000000
W       18.30193790      64.53212910       1.60179049  T       0.00000000       0.00000000       0.00000000
W       18.73392817      38.95377033       1.60179049  T       0.00000000       0.00000000       0.00000000
W       18.68424804      42.14041406       1.60179049  T       0.00000000       0.00000000       0.00000000
W       17.04881486      43.72907094       0.00000000  T       0.00000000       0.00000000       0.00000000
W       18.63237267      45.32940589       1.60179049  T       0.00000000       0.00000000       0.00000000
W       16.99767582      46.92027225       0.00000000  T       0.00000000       0.00000000       0.00000000
W       18.57880043      48.52123597       1.60179049  T       0.00000000       0.00000000       0.00000000
W       16.94524019      50.11434631       0.00000000  T       0.00000000       0.00000000       0.00000000
W       18.52402301      51.71628458       1.60179049  T       0.00000000       0.00000000       0.00000000
W       16.89193790      53.31157123       0.00000000  T       0.00000000       0.00000000       0.00000000
W       18.46850958      54.91481331       1.60179049  T       0.00000000       0.00000000       0.00000000
W       16.83817715      56.51212170       0.00000000  T       0.00000000       0.00000000       0.00000000
W       21.61553475      58.12393019       1.60179049  T       0.00000000       0.00000000       0.00000000
W       19.98520629      59.72288129       0.00000000  T       0.00000000       0.00000000       0.00000000
W       21.55551823      61.33010170       1.60179049  T       0.00000000       0.00000000       0.00000000
W       19.92770275      62.93079223       0.00000000  T       0.00000000       0.00000000       0.00000000
W       21.49621357      64.54039948       1.60179049  T       0.00000000       0.00000000       0.00000000
W       19.87107556      66.14243232       0.00000000  T       0.00000000       0.00000000       0.00000000
W       21.43817301      67.75455235       1.60179049  T       0.00000000       0.00000000       0.00000000
W       19.81582491      69.35750410       0.00000000  T       0.00000000       0.00000000       0.00000000
W       21.38196989      70.97213854       1.60179049  T       0.00000000       0.00000000       0.00000000
W       21.32818618      74.19259601       1.60179049  T       0.00000000       0.00000000       0.00000000
W       22.00863034      35.78654606       1.60179049  T       0.00000000       0.00000000       0.00000000
W       20.37081062      37.36914544       0.00000000  T       0.00000000       0.00000000       0.00000000
W       21.95951231      38.96922944       1.60179049  T       0.00000000       0.00000000       0.00000000
W       20.32119236      40.55375087       0.00000000  T       0.00000000       0.00000000       0.00000000
W       21.90705313      42.15364032       1.60179049  T       0.00000000       0.00000000       0.00000000
W       20.26884540      43.74045667       0.00000000  T       0.00000000       0.00000000       0.00000000
W       21.85182511      45.34053879       1.60179049  T       0.00000000       0.00000000       0.00000000
W       20.21431439      46.92988186       0.00000000  T       0.00000000       0.00000000       0.00000000
W       21.79445024      48.53058205       1.60179049  T       0.00000000       0.00000000       0.00000000
W       20.15815746      50.12253277       0.00000000  T       0.00000000       0.00000000       0.00000000
W       21.73555184      51.72428507       1.60179049  T       0.00000000       0.00000000       0.00000000
W       20.10091612      53.31878273       0.00000000  T       0.00000000       0.00000000       0.00000000
W       21.67572591      54.92200326       1.60179049  T       0.00000000       0.00000000       0.00000000
W       20.04310311      56.51886631       0.00000000  T       0.00000000       0.00000000       0.00000000
W       24.81822433      58.13146759       1.60179049  T       0.00000000       0.00000000       0.00000000
W       23.18560880      59.73024736       0.00000000  T       0.00000000       0.00000000       0.00000000
W       24.75312211      61.33810969       1.60179049  T       0.00000000       0.00000000       0.00000000
W       23.12347805      62.93889778       0.00000000  T       0.00000000       0.00000000       0.00000000
W       24.68893298      64.54958512       1.60179049  T       0.00000000       0.00000000       0.00000000
W       23.06246052      66.15187040       0.00000000  T       0.00000000       0.00000000       0.00000000
W       24.62636645      67.76551717       1.60179049  T       0.00000000       0.00000000       0.00000000
W       23.00319307      69.36875783       0.00000000  T       0.00000000       0.00000000       0.00000000
W       24.56615865      70.98532249       1.60179049  T       0.00000000       0.00000000       0.00000000
W       22.94633062      72.58898197       0.00000000  T       0.00000000       0.00000000       0.00000000
W       24.50904648      74.20823178       1.60179049  T       0.00000000       0.00000000       0.00000000
W       22.89251542      75.81181788       0.00000000  T       0.00000000       0.00000000       0.00000000
W       24.45571167      77.43333768       1.60179049  T       0.00000000       0.00000000       0.00000000
W       22.84232529      79.03644062       0.00000000  T       0.00000000       0.00000000       0.00000000
W       24.40670876      80.65967158       1.60179049  T       0.00000000       0.00000000       0.00000000
W       25.32713065      29.44717687       1.60179049  T       0.00000000       0.00000000       0.00000000
W       23.69073549      31.02528009       0.00000000  T       0.00000000       0.00000000       0.00000000
W       25.28568233      32.62722934       1.60179049  T       0.00000000       0.00000000       0.00000000
W       23.64706305      34.20595034       0.00000000  T       0.00000000       0.00000000       0.00000000
W       25.23925462      35.80690636       1.60179049  T       0.00000000       0.00000000       0.00000000
W       23.59897988      37.38694479       0.00000000  T       0.00000000       0.00000000       0.00000000
W       25.18810109      38.98712991       1.60179049  T       0.00000000       0.00000000       0.00000000
W       23.54687866      40.56915053       0.00000000  T       0.00000000       0.00000000       0.00000000
W       25.13271707      42.16891842       1.60179049  T       0.00000000       0.00000000       0.00000000
W       23.49132273      43.75346828       0.00000000  T       0.00000000       0.00000000       0.00000000
W       25.07378266      45.35328020       1.60179049  T       0.00000000       0.00000000       0.00000000
W       23.43298195      46.94072682       0.00000000  T       0.00000000       0.00000000       0.00000000
W       25.01207971      48.54111226       1.60179049  T       0.00000000       0.00000000       0.00000000
W       23.37256446      50.13161616       0.00000000  T       0.00000000       0.00000000       0.00000000
W       24.94267364      51.73511589       1.60179049  F       0.00051574      -0.00013424       0.00000000
W       23.31076478      53.32664909       0.00000000  T       0.00000000       0.00000000       0.00000000
W       24.87688909      54.93353754       1.60179049  F       0.00013385      -0.00005230       0.00000000
W       23.24823934      56.52614814       0.00000000  T       0.00000000       0.00000000       0.00000000
W       28.01743478      58.14479942       1.60179049  F      -0.00076901      -0.00051740       0.00000000
W       26.38543242      59.73826992       0.00000000  T       0.00000000       0.00000000       0.00000000
W       27.94632245      61.35102023       1.60179049  F       0.00120857       0.00004563       0.00000000
W       26.31787290      62.94786472       0.00000000  T       0.00000000       0.00000000       0.00000000
W       27.87967686      64.55991909       1.60179049  T       0.00000000       0.00000000       0.00000000
W       26.25175715      66.16252233       0.00000000  T       0.00000000       0.00000000       0.00000000
W       27.81187845      67.77810282       1.60179049  T       0.00000000       0.00000000       0.00000000
W       26.18791263      69.38167006       0.00000000  T       0.00000000       0.00000000       0.00000000
W       27.74717418      71.00065438       1.60179049  T       0.00000000       0.00000000       0.00000000
W       26.12718292      72.60450215       0.00000000  T       0.00000000       0.00000000       0.00000000
W       27.68650641      74.22649812       1.60179049  T       0.00000000       0.00000000       0.00000000
W       26.07037056      75.83002649       0.00000000  T       0.00000000       0.00000000       0.00000000
W       27.63069783      77.45440288       1.60179049  T       0.00000000       0.00000000       0.00000000
W       26.01815157      79.05714966       0.00000000  T       0.00000000       0.00000000       0.00000000
W       27.58034185      80.68311587       1.60179049  T       0.00000000       0.00000000       0.00000000
W       25.97099093      82.28478954       0.00000000  T       0.00000000       0.00000000       0.00000000
W       27.53572612      83.91150627       1.60179049  T       0.00000000       0.00000000       0.00000000
W       28.59664969      26.29362963       1.60179049  T       0.00000000       0.00000000       0.00000000
W       26.96261156      27.87011522       0.00000000  T       0.00000000       0.00000000       0.00000000
W       28.56132409      29.47423440       1.60179049  T       0.00000000       0.00000000       0.00000000
W       26.92396646      31.05012387       0.00000000  T       0.00000000       0.00000000       0.00000000
W       28.52024216      32.65296422       1.60179049  T       0.00000000       0.00000000       0.00000000
W       26.87987108      34.22900180       0.00000000  T       0.00000000       0.00000000       0.00000000
W       28.47317454      35.83056714       1.60179049  T       0.00000000       0.00000000       0.00000000
W       26.83036804      37.40763053       0.00000000  T       0.00000000       0.00000000       0.00000000
W       28.42022420      39.00809650       1.60179049  T       0.00000000       0.00000000       0.00000000
W       26.77580334      40.58709140       0.00000000  T       0.00000000       0.00000000       0.00000000
W       28.35535557      42.18487689       1.60179049  F      -0.00014732       0.00041099      -0.00000000
W       26.71680023      43.76855429       0.00000000  T       0.00000000       0.00000000       0.00000000
W       28.29199865      45.36904591       1.60179049  F      -0.00050138      -0.00030273       0.00000000
W       26.64839080      46.95319668      -0.00000000  F       0.00074527       0.00023349      -0.00000000
W       28.22380066      48.55666732       1.60179049  F      -0.00045294       0.00037572      -0.00000000
W       26.58154114      50.14525001      -0.00000000  F       0.00039914       0.00020726       0.00000000
W       28.15318061      51.74872266       1.60179049  F      -0.00077113       0.00029398      -0.00000000
W       26.51409041      53.34027987      -0.00000000  F       0.00004208      -0.00012783       0.00000000
W       28.08395513      54.94418594       1.60179049  F      -0.00071788      -0.00006159      -0.00000000
W       26.44871758      56.53818074      -0.00000000  F       0.00087686      -0.00023911      -0.00000000
W       31.21707777      58.15680212       1.60179049  F       0.00050798       0.00079731      -0.00000000
W       29.58070433      59.75400950      -0.00000000  F      -0.00042725       0.00005469       0.00000000
W       31.14056663      61.36484847       1.60179049  F      -0.00037632      -0.00007649      -0.00000000
W       29.50777648      62.96364733      -0.00000000  F      -0.00003773       0.00059540      -0.00000000
W       31.06452641      64.57955414       1.60179049  F      -0.00012569       0.00068440       0.00000000
W       29.43486941      66.18033956       0.00000000  F       0.00073782      -0.00019409      -0.00000000
W       30.99063558      67.79972330       1.60179049  F      -0.00126616       0.00016071       0.00000000
W       29.36538114      69.40152773       0.00000000  F       0.00110399      -0.00031809      -0.00000000
W       30.92210299      71.02314088       1.60179049  F       0.00062128       0.00160275       0.00000000
W       29.30436646      72.62275031       0.00000000  T       0.00000000       0.00000000       0.00000000
W       30.85989860      74.24813115       1.60179049  T       0.00000000       0.00000000       0.00000000
W       29.24453626      75.85140535       0.00000000  T       0.00000000       0.00000000       0.00000000
W       30.80187754      77.47914839       1.60179049  T       0.00000000       0.00000000       0.00000000
W       29.19058389      79.08124687       0.00000000  T       0.00000000       0.00000000       0.00000000
W       30.75074174      80.71024829       1.60179049  T       0.00000000       0.00000000       0.00000000
W       29.14291086      82.31093459       0.00000000  T       0.00000000       0.00000000       0.00000000
W       30.70657349      83.94012697       1.60179049  T       0.00000000       0.00000000       0.00000000
W       29.10153139      85.53939038       0.00000000  T       0.00000000       0.00000000       0.00000000
W       30.66903464      87.16788463       1.60179049  T       0.00000000       0.00000000       0.00000000
W       31.85850941      23.14021269       1.60179049  T       0.00000000       0.00000000       0.00000000
W       30.22875179      24.71718283       0.00000000  T       0.00000000       0.00000000       0.00000000
W       31.83083779      26.32389780       1.60179049  T       0.00000000       0.00000000       0.00000000
W       30.19714030      27.89903245       0.00000000  T       0.00000000       0.00000000       0.00000000
W       31.79748405      29.50456990       1.60179049  T       0.00000000       0.00000000       0.00000000
W       30.15968651      31.07835432       0.00000000  T       0.00000000       0.00000000       0.00000000
W       31.75763658      32.68246211       1.60179049  T       0.00000000       0.00000000       0.00000000
W       30.11586008      34.25567137       0.00000000  T       0.00000000       0.00000000       0.00000000
W       31.71069917      35.85821264       1.60179049  T       0.00000000       0.00000000       0.00000000
W       30.06543673      37.43189019       0.00000000  T       0.00000000       0.00000000       0.00000000
W       31.64864608      39.03136207       1.60179049  F       0.00008778      -0.00016233      -0.00000000
W       30.00136946      40.60693511       0.00000000  F      -0.00039812      -0.00053714      -0.00000000
W       31.58319001      42.20786737       1.60179049  F       0.00002627      -0.00015188       0.00000000
W       29.93661193      43.78646585       0.00000000  F      -0.00050993      -0.00020739      -0.00000000
W       31.51457267      45.38838695       1.60179049  F       0.00067392      -0.00052236       0.00000000
W       29.86775090      46.97137372       0.00000000  F       0.00007334      -0.00013262       0.00000000
W       31.44272799      48.57307240       1.60179049  F      -0.00023445      -0.00119034      -0.00000000
W       29.79646775      50.15960629      -0.00000000  F      -0.00061144      -0.00033980       0.00000000
W       31.36823931      51.76182865       1.60179049  F      -0.00053160      -0.00027197      -0.00000000
W       29.72442740      53.35182213      -0.00000000  F      -0.00009060       0.00046949      -0.00000000
W       31.29297027      54.95587884       1.60179049  F      -0.00086776      -0.00011386      -0.00000000
W       29.65278094      56.54927343       0.00000000  F      -0.00071927      -0.00076053      -0.00000000
W       34.41784383      58.17003958       1.60179049  F      -0.00022427      -0.00007328       0.00000000
W       32.77747423      59.76670381       0.00000000  F      -0.00089268       0.00025933      -0.00000000
W       34.33316075      61.37927339       1.60179049  F       0.00119766       0.00159766      -0.00000000
W       32.69705797      62.97894730       0.00000000  F       0.00029294       0.00146047      -0.00000000
W       34.24970316      64.59617969       1.60179049  F       0.00018393       0.00095771      -0.00000000
W       32.61805897      66.19782977      -0.00000000  F      -0.00040239       0.00019314       0.00000000
W       34.16954299      67.81930246       1.60179049  F       0.00055183       0.00119265      -0.00000000
W       32.54344995      69.42161546      -0.00000000  F       0.00030029       0.00091445      -0.00000000
W       34.09481135      71.04775059       1.60179049  F       0.00018087      -0.00027506      -0.00000000
W       32.47551816      72.65009471       0.00000000  F      -0.00124626       0.00002450       0.00000000
W       34.02617452      74.28066749       1.60179049  F      -0.00022990      -0.00009555      -0.00000000
W       32.41024077      75.88100342      -0.00000000  F       0.00085148       0.00008283       0.00000000
W       33.96567090      77.51227613       1.60179049  F      -0.00074651       0.00070199       0.00000000
W       32.35933923      79.10941730       0.00000000  T       0.00000000       0.00000000       0.00000000
W       33.91789518      80.74162641       1.60179049  T       0.00000000       0.00000000       0.00000000
W       32.31200370      82.34087653       0.00000000  T       0.00000000       0.00000000       0.00000000
W       33.87524342      83.97239600       1.60179049  T       0.00000000       0.00000000       0.00000000
W       32.27206754      85.57005431       0.00000000  T       0.00000000       0.00000000       0.00000000
W       33.84007071      87.19997113       1.60179049  T       0.00000000       0.00000000       0.00000000
W       32.23880985      88.79634939       0.00000000  T       0.00000000       0.00000000       0.00000000
W       33.81131367      90.42412626       1.60179049  T       0.00000000       0.00000000       0.00000000
W       33.48563781      21.56218580       0.00000000  T       0.00000000       0.00000000       0.00000000
W       35.09012332      23.17125443       1.60179049  T       0.00000000       0.00000000       0.00000000
W       33.46194043      24.74817750       0.00000000  T       0.00000000       0.00000000       0.00000000
W       35.06553567      26.35655065       1.60179049  T       0.00000000       0.00000000       0.00000000
W       33.43295360      27.93089011       0.00000000  T       0.00000000       0.00000000       0.00000000
W       35.03510407      29.53819286       1.60179049  T       0.00000000       0.00000000       0.00000000
W       33.39765486      31.11025055       0.00000000  T       0.00000000       0.00000000       0.00000000
W       34.99762016      32.71608336       1.60179049  T       0.00000000       0.00000000       0.00000000
W       33.35509661      34.28654052       0.00000000  T       0.00000000       0.00000000       0.00000000
W       34.94448046      35.88716714       1.60179049  F       0.00048582       0.00004799       0.00000000
W       33.29676827      37.45829144       0.00000000  F       0.00017619       0.00011258      -0.00000000
W       34.88399166      39.05919963       1.60179049  F       0.00011767       0.00005940      -0.00000000
W       33.23299962      40.63218475      -0.00000000  F       0.00024958      -0.00000606       0.00000000
W       34.81618025      42.23232792       1.60179049  F       0.00043849      -0.00041245       0.00000000
W       33.16417950      43.80867234       0.00000000  F       0.00058903      -0.00058627      -0.00000000
W       34.74303793      45.40844950       1.60179049  F      -0.00034068      -0.00128080      -0.00000000
W       33.09143585      46.98916338      -0.00000000  F      -0.00087918      -0.00166349      -0.00000000
W       34.66567957      48.58919532       1.60179049  F      -0.00046325      -0.00113638       0.00000000
W       33.01534888      50.17421730      -0.00000000  F      -0.00053541      -0.00081794       0.00000000
W       34.58514021      51.77564080       1.60179049  F      -0.00169231      -0.00126668      -0.00000000
W       32.93723721      53.36467413      -0.00000000  F      -0.00121444      -0.00073197       0.00000000
W       34.50220368      54.96883760       1.60179049  F      -0.00061045       0.00056957       0.00000000
W       32.85770232      56.56182784      -0.00000000  F      -0.00037515       0.00071507       0.00000000
W       37.61772009      58.18396999       1.60179049  F      -0.00152304       0.00036446      -0.00000000
W       35.97332041      59.78081489      -0.00000000  F      -0.00002801       0.00160019      -0.00000000
W       37.52378101      61.39523753       1.60179049  F      -0.00227746       0.00016492       0.00000000
W       35.88470854      62.99522802      -0.00000000  F      -0.00071851       0.00066624      -0.00000000
W       37.43167172      64.61522216       1.60179049  F      -0.00083900       0.00090893       0.00000000
W       35.79862004      66.21713767       0.00000000  F       0.00026913       0.00096574      -0.00000000
W       37.34401539      67.84269751       1.60179049  F       0.00033263       0.00049178      -0.00000000
W       35.71760705      69.44531510      -0.00000000  F       0.00071144       0.00015988       0.00000000
W       37.26313523      71.07580740       1.60179049  F       0.00093132       0.00014403       0.00000000
W       35.64316493      72.67826267       0.00000000  F       0.00133986       0.00028463      -0.00000000
W       37.19112499      74.31195316       1.60179049  F       0.00052106      -0.00080710       0.00000000
W       35.57686350      75.91302677       0.00000000  F      -0.00011144      -0.00036403       0.00000000
W       37.12940737      77.54787451       1.60179049  F       0.00059060       0.00030907      -0.00000000
W       35.52149220      79.14598383       0.00000000  F      -0.00021260       0.00089895      -0.00000000
W       37.07953071      80.78090740       1.60179049  F      -0.00047330       0.00037801       0.00000000
W       35.47858851      82.37492446       0.00000000  T       0.00000000       0.00000000       0.00000000
W       37.04239089      84.00827407       1.60179049  T       0.00000000       0.00000000       0.00000000
W       35.44126830      85.60393108       0.00000000  T       0.00000000       0.00000000       0.00000000
W       37.01071008      87.23457175       1.60179049  T       0.00000000       0.00000000       0.00000000
W       35.41111782      88.82910669       0.00000000  T       0.00000000       0.00000000       0.00000000
W       36.98554180      90.45675464       1.60179049  T       0.00000000       0.00000000       0.00000000
W       35.38683976      92.05060734       0.00000000  T       0.00000000       0.00000000       0.00000000
W       36.96550174      93.67529332       1.60179049  T       0.00000000       0.00000000       0.00000000
W       38.33730012      20.01185705       1.60179049  T       0.00000000       0.00000000       0.00000000
W       36.71523673      21.59260855       0.00000000  T       0.00000000       0.00000000       0.00000000
W       38.32076296      23.20314004       1.60179049  T       0.00000000       0.00000000       0.00000000
W       36.69485759      24.78083242       0.00000000  T       0.00000000       0.00000000       0.00000000
W       38.29987544      26.39098738       1.60179049  T       0.00000000       0.00000000       0.00000000
W       36.66932088      27.96538664       0.00000000  T       0.00000000       0.00000000       0.00000000
W       38.27332745      29.57475112       1.60179049  T       0.00000000       0.00000000       0.00000000
W       36.63729520      31.14584544       0.00000000  T       0.00000000       0.00000000       0.00000000
W       38.23433977      32.74791930       1.60179049  F       0.00020977      -0.00037315      -0.00000000
W       36.59080481      34.31730390       0.00000000  F       0.00044695      -0.00003511      -0.00000000
W       38.18522943      35.91982264       1.60179049  F       0.00011000      -0.00024166       0.00000000
W       36.53520017      37.48857928      -0.00000000  F       0.00020446      -0.00004543      -0.00000000
W       38.12484591      39.08927283       1.60179049  F       0.00018000      -0.00038076       0.00000000
W       36.47015007      40.65924122      -0.00000000  F       0.00049760      -0.00027536       0.00000000
W       38.05470750      42.25826227       1.60179049  F       0.00002018      -0.00072806      -0.00000000
W       36.39769269      43.83139773      -0.00000000  F      -0.00031914      -0.00088345      -0.00000000
W       37.97661798      45.42962873       1.60179049  F      -0.00009546      -0.00062645       0.00000000
W       36.31939519      47.00741306      -0.00000000  F      -0.00054810      -0.00099263       0.00000000
W       37.89234362      48.60604714       1.60179049  F      -0.00085354      -0.00091446      -0.00000000
W       36.23667251      50.18917575      -0.00000000  F      -0.00124600      -0.00147955       0.00000000
W       37.80347650      51.78962834       1.60179049  F      -0.00063269       0.00038384       0.00000000
W       36.15071792      53.37798879       0.00000000  F      -0.00053418       0.00007259      -0.00000000
W       37.71152442      54.98212482       1.60179049  F      -0.00166094      -0.00041037       0.00000000
W       36.06258614      56.57509165       0.00000000  F      -0.00121126       0.00004821      -0.00000000
W       40.81536988      58.19862575       1.60179049  F       0.00056113      -0.00020600       0.00000000
W       39.16705790      59.79633504      -0.00000000  F      -0.00052371      -0.00041535      -0.00000000
W       40.71039506      61.41300730       1.60179049  F      -0.00019775      -0.00144984       0.00000000
W       39.06859392      63.01379713      -0.00000000  F       0.00017019       0.00040056       0.00000000
W       40.60834052      64.63745253       1.60179049  F      -0.00079617      -0.00107729      -0.00000000
W       38.97399205      66.24001862       0.00000000  F      -0.00007878       0.00039912      -0.00000000
W       40.51242756      67.87018463       1.60179049  F      -0.00110842      -0.00058550      -0.00000000
W       38.88606097      69.47311827      -0.00000000  F      -0.00051925       0.00002823       0.00000000
W       40.42587172      71.10830300       1.60179049  F      -0.00001869       0.00103663      -0.00000000
W       38.80714508      72.71031309       0.00000000  F       0.00075028      -0.00029039      -0.00000000
W       40.35136556      74.34839547       1.60179049  F       0.00013436      -0.00010391       0.00000000
W       38.73946677      75.94833618       0.00000000  F       0.00105633      -0.00007444       0.00000000
W       40.29014119      77.58686467       1.60179049  F       0.00032907      -0.00017269      -0.00000000
W       38.68391788      79.18443052       0.00000000  F       0.00001073      -0.00002041      -0.00000000
W       40.24187665      80.82138439       1.60179049  F       0.00043486       0.00054341       0.00000000
W       38.64063864      82.41601926      -0.00000000  F      -0.00011605       0.00047964      -0.00000000
W       40.20594837      84.05024209       1.60179049  F      -0.00002872      -0.00001236       0.00000000
W       38.61005557      85.64059052       0.00000000  T       0.00000000       0.00000000       0.00000000
W       40.18201460      87.27089851       1.60179049  T       0.00000000       0.00000000       0.00000000
W       38.58394746      88.86349130       0.00000000  T       0.00000000       0.00000000       0.00000000
W       40.16108328      90.49004118       1.60179049  T       0.00000000       0.00000000       0.00000000
W       38.56345381      92.08234693       0.00000000  T       0.00000000       0.00000000       0.00000000
W       40.14476343      93.70549480       1.60179049  T       0.00000000       0.00000000       0.00000000
W       38.54724601      95.29782806       0.00000000  T       0.00000000       0.00000000       0.00000000
W       40.13188631      96.91800626       1.60179049  T       0.00000000       0.00000000       0.00000000
W       41.57300879      16.84324919       1.60179049  T       0.00000000       0.00000000       0.00000000
W       39.95647225      18.42876778       0.00000000  T       0.00000000       0.00000000       0.00000000
W       41.56268287      20.04032727       1.60179049  T       0.00000000       0.00000000       0.00000000
W       39.94330065      21.62305081       0.00000000  T       0.00000000       0.00000000       0.00000000
W       41.54960848      23.23488978       1.60179049  T       0.00000000       0.00000000       0.00000000
W       39.92660771      24.81431024       0.00000000  T       0.00000000       0.00000000       0.00000000
W       41.53280910      26.42620058       1.60179049  T       0.00000000       0.00000000       0.00000000
W       39.90521813      28.00179999       0.00000000  T       0.00000000       0.00000000       0.00000000