2136
Lattice="152.41848735692935 0.0 0.0 0.0 145.79159660228024 0.0 0.0 0.0 3.313445377324551" Properties=species:S:1:pos:R:3:fix_mask:L:1:forces:R:3 energy=-21331.725387660834 pbc="T T T"
Nb      15.90045348      63.42343489       1.65672269  T       0.00000000       0.00000000       0.00000000
Nb      15.84523067      66.73153614       1.65672269  T       0.00000000       0.00000000       0.00000000
Nb      15.78842480      70.04177246       1.65672269  T       0.00000000       0.00000000       0.00000000
Nb      19.04379996      73.35920848       1.65672269  T       0.00000000       0.00000000       0.00000000
Nb      18.98326224      76.67421456       1.65672269  T       0.00000000       0.00000000       0.00000000
Nb      18.92401088      79.99170813       1.65672269  T       0.00000000       0.00000000       0.00000000
Nb      18.86698213      83.31145832       1.65672269  T       0.00000000       0.00000000       0.00000000
Nb      19.42269188      50.21615450       1.65672269  T       0.00000000       0.00000000       0.00000000
Nb      19.37827763      53.51772057       1.65672269  T       0.00000000       0.00000000       0.00000000
Nb      17.69074103      55.16471228       0.00000000  T       0.00000000       0.00000000       0.00000000
Nb      19.32995507      56.82018839       1.65672269  T       0.00000000       0.00000000       0.00000000
Nb      17.64142612      58.46823485       0.00000000  T       0.00000000       0.00000000       0.00000000
Nb      19.27791148      60.12394933       1.65672269  T       0.00000000       0.00000000       0.00000000
Nb      17.58879857      61.77321505       0.00000000  T       0.00000000       0.00000000       0.00000000
Nb      19.22254539      63.42940242       1.65672269  T       0.00000000       0.00000000       0.00000000
Nb      17.53335138      65.08000830       0.00000000  T       0.00000000       0.00000000       0.00000000
Nb      19.16448370      66.73691723       1.65672269  T       0.00000000       0.00000000       0.00000000
Nb      17.47577854      68.38892128       0.00000000  T       0.00000000       0.00000000       0.00000000
Nb      19.10456742      70.04679102       1.65672269  T       0.00000000       0.00000000       0.00000000
Nb      17.41694399      71.70017477       0.00000000  T       0.00000000       0.00000000       0.00000000
Nb      22.35663521      73.36440961       1.65672269  T       0.00000000       0.00000000       0.00000000
Nb      20.66898420      75.01898178       0.00000000  T       0.00000000       0.00000000       0.00000000
Nb      22.29251998      76.67961093       1.65672269  T       0.00000000       0.00000000       0.00000000
Nb      20.60727151      78.33541862       0.00000000  T       0.00000000       0.00000000       0.00000000
Nb      22.22993211      79.99759052       1.65672269  T       0.00000000       0.00000000       0.00000000
Nb      20.54748732      81.65436954       0.00000000  T       0.00000000       0.00000000       0.00000000
Nb      22.16996439      83.31806030       1.65672269  T       0.00000000       0.00000000       0.00000000
Nb      20.49054104      84.97551907       0.00000000  T       0.00000000       0.00000000       0.00000000
Nb      22.11346176      86.64061851       1.65672269  T       0.00000000       0.00000000       0.00000000
Nb      20.43710210      88.29847152       0.00000000  T       0.00000000       0.00000000       0.00000000
Nb      22.06098504      89.96480630       1.65672269  T       0.00000000       0.00000000       0.00000000
Nb      22.01282217      93.29015989       1.65672269  T       0.00000000       0.00000000       0.00000000
Nb      22.83131846      43.62632237       1.65672269  T       0.00000000       0.00000000       0.00000000
Nb      22.79435502      46.92631989       1.65672269  T       0.00000000       0.00000000       0.00000000
Nb      21.10871199      48.57084430       0.00000000  T       0.00000000       0.00000000       0.00000000
Nb      22.75321860      50.22644277       1.65672269  T       0.00000000       0.00000000       0.00000000
Nb      21.06582824      51.87163407       0.00000000  T       0.00000000       0.00000000       0.00000000
Nb      22.70771738      53.52702913       1.65672269  T       0.00000000       0.00000000       0.00000000
Nb      21.01877979      55.17311520       0.00000000  T       0.00000000       0.00000000       0.00000000
Nb      22.65780231      56.82848354       1.65672269  T       0.00000000       0.00000000       0.00000000
Nb      20.96763876      58.47569167       0.00000000  T       0.00000000       0.00000000       0.00000000
Nb      22.60362613      60.13126165       1.65672269  T       0.00000000       0.00000000       0.00000000
Nb      20.91268892      61.77979684       0.00000000  T       0.00000000       0.00000000       0.00000000
Nb      22.54559650      63.43583960       1.65672269  T       0.00000000       0.00000000       0.00000000
Nb      20.85446135      65.08585815       0.00000000  T       0.00000000       0.00000000       0.00000000
Nb      22.48440675      66.74266767       1.65672269  T       0.00000000       0.00000000       0.00000000
Nb      20.79374120      68.39425082       0.00000000  T       0.00000000       0.00000000       0.00000000
Nb      22.42102569      70.05211396       1.65672269  T       0.00000000       0.00000000       0.00000000
Nb      20.73153336      71.70524840       0.00000000  T       0.00000000       0.00000000       0.00000000
Nb      25.66938615      73.36993195       1.65672269  T       0.00000000       0.00000000       0.00000000
Nb      23.97986298      75.02440304       0.00000000  T       0.00000000       0.00000000       0.00000000
Nb      25.60124695      76.68536709       1.65672269  T       0.00000000       0.00000000       0.00000000
Nb      23.91446936      78.34121746       0.00000000  T       0.00000000       0.00000000       0.00000000
Nb      25.53493967      80.00392419       1.65672269  T       0.00000000       0.00000000       0.00000000
Nb      23.85136871      81.66083245       0.00000000  T       0.00000000       0.00000000       0.00000000
Nb      25.47174855      83.32523936       1.65672269  T       0.00000000       0.00000000       0.00000000
Nb      23.79161125      84.98285473       0.00000000  T       0.00000000       0.00000000       0.00000000
Nb      25.41263106      86.64881348       1.65672269  T       0.00000000       0.00000000       0.00000000
Nb      23.73593664      88.30679982       0.00000000  T       0.00000000       0.00000000       0.00000000
Nb      25.35818072      89.97408900       1.65672269  T       0.00000000       0.00000000       0.00000000
Nb      23.68476665      91.63215632       0.00000000  T       0.00000000       0.00000000       0.00000000
Nb      25.30865457      93.30051702       1.65672269  T       0.00000000       0.00000000       0.00000000
Nb      23.63824394      94.95843750       0.00000000  T       0.00000000       0.00000000       0.00000000
Nb      25.26403949      96.62760387       1.65672269  T       0.00000000       0.00000000       0.00000000
Nb      23.59629492      98.28521450       0.00000000  T       0.00000000       0.00000000       0.00000000
Nb      25.22413090      99.95493540       1.65672269  T       0.00000000       0.00000000       0.00000000
Nb      26.19678694      40.33996284       1.65672269  T       0.00000000       0.00000000       0.00000000
Nb      24.51444701      41.98286714       0.00000000  T       0.00000000       0.00000000       0.00000000
Nb      26.16389790      43.63944455       1.65672269  T       0.00000000       0.00000000       0.00000000
Nb      24.47946646      45.28253871       0.00000000  T       0.00000000       0.00000000       0.00000000
Nb      26.12680841      46.93862640       1.65672269  T       0.00000000       0.00000000       0.00000000
Nb      24.44027091      48.58212089       0.00000000  T       0.00000000       0.00000000       0.00000000
Nb      26.08514571      50.23778903       1.65672269  T       0.00000000       0.00000000       0.00000000
Nb      24.39657315      51.88192740       0.00000000  T       0.00000000       0.00000000       0.00000000
Nb      26.03862266      53.53730040       1.65672269  T       0.00000000       0.00000000       0.00000000
Nb      24.34820250      55.18235073       0.00000000  T       0.00000000       0.00000000       0.00000000
Nb      25.98710427      56.83761671       1.65672269  T       0.00000000       0.00000000       0.00000000
Nb      24.29516984      58.48385456       0.00000000  T       0.00000000       0.00000000       0.00000000
Nb      25.93068615      60.13926860       1.65672269  T       0.00000000       0.00000000       0.00000000
Nb      24.23773564      61.78695058       0.00000000  T       0.00000000       0.00000000       0.00000000
Nb      25.86528527      63.44116550       1.65672269  F      -0.00006221       0.00000685      -0.00000000
Nb      24.17646491      65.09215604       0.00000000  T       0.00000000       0.00000000       0.00000000
Nb      25.80064050      66.74801402       1.65672269  F      -0.00025761      -0.00001236      -0.00000000
Nb      24.11224672      68.39993432       0.00000000  T       0.00000000       0.00000000       0.00000000
Nb      25.73067482      70.05849389       1.65672269  F      -0.00006129       0.00000037      -0.00000000
Nb      24.04625775      71.71062822       0.00000000  T       0.00000000       0.00000000       0.00000000
Nb      28.97671225      73.37426957       1.65672269  F       0.00006691       0.00005441      -0.00000000
Nb      27.29039911      75.03017911       0.00000000  T       0.00000000       0.00000000       0.00000000
Nb      28.90548142      76.69160444       1.65672269  F      -0.00009182       0.00009520      -0.00000000
Nb      27.22086694      78.34744644       0.00000000  T       0.00000000       0.00000000       0.00000000
Nb      28.83455091      80.01159257       1.65672269  F      -0.00010266      -0.00002075      -0.00000000
Nb      27.15408864      81.66784982       0.00000000  T       0.00000000       0.00000000       0.00000000
Nb      28.77212716      83.33310239       1.65672269  T       0.00000000       0.00000000       0.00000000
Nb      27.09128177      84.99089336       0.00000000  T       0.00000000       0.00000000       0.00000000
Nb      28.71021907      86.65785788       1.65672269  T       0.00000000       0.00000000       0.00000000
Nb      27.03325760      88.31597898       0.00000000  T       0.00000000       0.00000000       0.00000000
Nb      28.65374963      89.98437111       1.65672269  T       0.00000000       0.00000000       0.00000000
Nb      26.98042640      91.64249184       0.00000000  T       0.00000000       0.00000000       0.00000000
Nb      28.60291674      93.31199154       1.65672269  T       0.00000000       0.00000000       0.00000000
Nb      26.93286239      94.96986440       0.00000000  T       0.00000000       0.00000000       0.00000000
Nb      28.55760345      96.64015415       1.65672269  T       0.00000000       0.00000000       0.00000000
Nb      26.89039407      98.29761321       0.00000000  T       0.00000000       0.00000000       0.00000000
Nb      28.51748559      99.96840283       1.65672269  T       0.00000000       0.00000000       0.00000000
Nb      26.85269304     101.62535218       0.00000000  T       0.00000000       0.00000000       0.00000000
Nb      28.48212391     103.29639150       1.65672269  T       0.00000000       0.00000000       0.00000000
Nb      26.81934701     104.95278988       0.00000000  T       0.00000000       0.00000000       0.00000000
Nb      28.45103231     106.62387252       1.65672269  T       0.00000000       0.00000000       0.00000000
Nb      29.58365037      33.75516388       1.65672269  T       0.00000000       0.00000000       0.00000000
Nb      29.55867750      37.05549970       1.65672269  T       0.00000000       0.00000000       0.00000000
Nb      27.87822915      38.69753488       0.00000000  T       0.00000000       0.00000000       0.00000000
Nb      29.53017740      40.35502822       1.65672269  T       0.00000000       0.00000000       0.00000000
Nb      27.84751040      41.99696816       0.00000000  T       0.00000000       0.00000000       0.00000000
Nb      29.49766425      43.65387082       1.65672269  T       0.00000000       0.00000000       0.00000000
Nb      27.81265995      45.29590104       0.00000000  T       0.00000000       0.00000000       0.00000000
Nb      29.46063542      46.95222233       1.65672269  T       0.00000000       0.00000000       0.00000000
Nb      27.77323249      48.59457387       0.00000000  T       0.00000000       0.00000000       0.00000000
Nb      29.41860664      50.25036948       1.65672269  T       0.00000000       0.00000000       0.00000000
Nb      27.72883486      51.89331878       0.00000000  T       0.00000000       0.00000000       0.00000000
Nb      29.36881278      53.54595776       1.65672269  F       0.00003040      -0.00012305       0.00000000
Nb      27.67918961      55.19256868       0.00000000  T       0.00000000       0.00000000       0.00000000
Nb      29.31600613      56.84448058       1.65672269  F      -0.00009402       0.00001203      -0.00000000
Nb      27.62149237      58.49047248       0.00000000  F      -0.00010365      -0.00001751      -0.00000000
Nb      29.25581474      60.14419490       1.65672269  F      -0.00000717       0.00002180      -0.00000000
Nb      27.56074408      61.79253820      -0.00000000  F      -0.00011733      -0.00008330       0.00000000
Nb      29.18977284      63.44701634       1.65672269  F       0.00000734      -0.00005812      -0.00000000
Nb      27.49404211      65.09665139      -0.00000000  F      -0.00000429      -0.00000202       0.00000000
Nb      29.11935376      66.75269416       1.65672269  F       0.00003688       0.00000227      -0.00000000
Nb      27.42460351      68.40511140       0.00000000  F      -0.00006692      -0.00001621      -0.00000000
Nb      29.04709269      70.06170563       1.65672269  F       0.00006389       0.00006339       0.00000000
Nb      27.35522370      71.71559596      -0.00000000  F      -0.00009790       0.00004192       0.00000000
Nb      32.28531849      73.37950686       1.65672269  F       0.00004082      -0.00007320      -0.00000000
Nb      30.59425533      75.03514914      -0.00000000  F      -0.00002678       0.00005276       0.00000000
Nb      32.20874469      76.69766044       1.65672269  F      -0.00000889      -0.00009026      -0.00000000
Nb      30.52067507      78.35466386       0.00000000  F       0.00000872      -0.00006553       0.00000000
Nb      32.13466354      80.01917537       1.65672269  F      -0.00006594       0.00000557      -0.00000000
Nb      30.45099642      81.67640579       0.00000000  F       0.00002319      -0.00010117      -0.00000000
Nb      32.06542588      83.34389253       1.65672269  F      -0.00007043       0.00002982      -0.00000000
Nb      30.38572953      85.00152729      -0.00000000  F      -0.00014180       0.00008954       0.00000000
Nb      32.00079107      86.67087122       1.65672269  F       0.00000796      -0.00003382      -0.00000000
Nb      30.32421117      88.32820972      -0.00000000  F      -0.00011209       0.00004037       0.00000000
Nb      31.94345302      89.99791607       1.65672269  F      -0.00006529      -0.00008178      -0.00000000
Nb      30.27438326      91.65398377       0.00000000  T       0.00000000       0.00000000       0.00000000
Nb      31.89544274      93.32478228       1.65672269  T       0.00000000       0.00000000       0.00000000
Nb      30.22589787      94.98254724       0.00000000  T       0.00000000       0.00000000       0.00000000
Nb      31.84961108      96.65409349       1.65672269  T       0.00000000       0.00000000       0.00000000
Nb      30.18308456      98.31132163       0.00000000  T       0.00000000       0.00000000       0.00000000
Nb      31.80950017      99.98328264       1.65672269  T       0.00000000       0.00000000       0.00000000
Nb      30.14548013     101.63989396       0.00000000  T       0.00000000       0.00000000       0.00000000
Nb      31.77452803     103.31199304       1.65672269  T       0.00000000       0.00000000       0.00000000
Nb      30.11255201     104.96796789       0.00000000  T       0.00000000       0.00000000       0.00000000
Nb      31.74408946     106.63998517       1.65672269  T       0.00000000       0.00000000       0.00000000
Nb      30.08375741     108.29534463       0.00000000  T       0.00000000       0.00000000       0.00000000
Nb      31.71760304     109.96711191       1.65672269  T       0.00000000       0.00000000       0.00000000
Nb      32.93717626      30.47106058       1.65672269  T       0.00000000       0.00000000       0.00000000
Nb      31.26096722      32.11306855       0.00000000  T       0.00000000       0.00000000       0.00000000
Nb      32.91628030      33.77223633       1.65672269  T       0.00000000       0.00000000       0.00000000
Nb      31.23805014      35.41376605       0.00000000  T       0.00000000       0.00000000       0.00000000
Nb      32.89224409      37.07237955       1.65672269  T       0.00000000       0.00000000       0.00000000
Nb      31.21178707      38.71353253       0.00000000  T       0.00000000       0.00000000       0.00000000
Nb      32.86455751      40.37152797       1.65672269  T       0.00000000       0.00000000       0.00000000
Nb      31.18167371      42.01244709       0.00000000  T       0.00000000       0.00000000       0.00000000
Nb      32.83265254      43.66977783       1.65672269  T       0.00000000       0.00000000       0.00000000
Nb      31.14716646      45.31065582       0.00000000  T       0.00000000       0.00000000       0.00000000
Nb      32.79345479      46.96400741       1.65672269  F       0.00001180      -0.00001311      -0.00000000
Nb      31.10770814      48.60839283       0.00000000  T       0.00000000       0.00000000       0.00000000
Nb      32.75304289      50.26028250       1.65672269  F      -0.00009119      -0.00003438       0.00000000
Nb      31.06126886      51.90272595      -0.00000000  F      -0.00004625      -0.00008059      -0.00000000
Nb      32.70383212      53.55608091       1.65672269  F       0.00004891      -0.00006112       0.00000000
Nb      31.00979145      55.19916466       0.00000000  F      -0.00002927       0.00005248      -0.00000000
Nb      32.64801292      56.85280713       1.65672269  F       0.00004936       0.00005483      -0.00000000
Nb      30.95178569      58.49783869       0.00000000  F       0.00002250       0.00001774       0.00000000
Nb      32.58488585      60.15162239       1.65672269  F       0.00009449       0.00003749      -0.00000000
Nb      30.88685749      61.79845229       0.00000000  F       0.00007063       0.00010402       0.00000000
Nb      32.51496820      63.45300471       1.65672269  F       0.00003602       0.00000870      -0.00000000
Nb      30.81628546      65.10203205       0.00000000  F       0.00021726       0.00002375       0.00000000
Nb      32.44000009      66.75765953       1.65672269  F       0.00011870       0.00001598       0.00000000
Nb      30.74227950      68.40895428       0.00000000  F       0.00013478      -0.00001030      -0.00000000
Nb      32.36261346      70.06622608       1.65672269  F       0.00002856       0.00002993      -0.00000000
Nb      30.66784115      71.71957924       0.00000000  F       0.00006083       0.00004061       0.00000000
Nb      35.59360512      73.38579254       1.65672269  F      -0.00009368      -0.00008558      -0.00000000
Nb      33.89949856      75.04121284      -0.00000000  F      -0.00006914      -0.00006006       0.00000000
Nb      35.51083389      76.70468341       1.65672269  F      -0.00007459      -0.00000652      -0.00000000
Nb      33.82122164      78.36178900      -0.00000000  F      -0.00010609      -0.00000620       0.00000000
Nb      35.43185009      80.02794434       1.65672269  F      -0.00004139      -0.00004891      -0.00000000
Nb      33.74720354      81.68588496       0.00000000  F       0.00002475      -0.00004592       0.00000000
Nb      35.35858293      83.35447202       1.65672269  F      -0.00004118       0.00002068       0.00000000
Nb      33.67867910      85.01278515       0.00000000  F      -0.00001277      -0.00003695      -0.00000000
Nb      35.29203817      86.68303062       1.65672269  F      -0.00003078       0.00006884      -0.00000000
Nb      33.61668194      88.34076538       0.00000000  F      -0.00002888      -0.00002098       0.00000000
Nb      35.23348682      90.01245029       1.65672269  F      -0.00010667       0.00006024       0.00000000
Nb      33.56294269      91.66935559       0.00000000  F      -0.00000204       0.00004403       0.00000000
Nb      35.18187726      93.34291337       1.65672269  F       0.00002668       0.00009567      -0.00000000
Nb      33.51377122      94.99905202      -0.00000000  F      -0.00011412       0.00007658       0.00000000
Nb      35.13678262      96.67230017       1.65672269  F      -0.00003446       0.00001642       0.00000000
Nb      33.47428518      98.32654092       0.00000000  T       0.00000000       0.00000000       0.00000000
Nb      35.10012966      99.99977769       1.65672269  T       0.00000000       0.00000000       0.00000000
Nb      33.43702718     101.65593480       0.00000000  T       0.00000000       0.00000000       0.00000000
Nb      35.06582088     103.32915956       1.65672269  T       0.00000000       0.00000000       0.00000000
Nb      33.40476079     104.98459339       0.00000000  T       0.00000000       0.00000000       0.00000000
Nb      35.03628896     106.65757728       1.65672269  T       0.00000000       0.00000000       0.00000000
Nb      33.37683043     108.31233814       0.00000000  T       0.00000000       0.00000000       0.00000000
Nb      35.01085013     109.98491438       1.65672269  T       0.00000000       0.00000000       0.00000000
Nb      33.35263377     111.63907411       0.00000000  T       0.00000000       0.00000000       0.00000000
Nb      34.98889781     113.31112662       1.65672269  T       0.00000000       0.00000000       0.00000000
Nb      36.28615963      27.18692820       1.65672269  T       0.00000000       0.00000000       0.00000000
Nb      34.61224643      28.82904570       0.00000000  T       0.00000000       0.00000000       0.00000000
Nb      36.26912384      30.48937550       1.65672269  T       0.00000000       0.00000000       0.00000000
Nb      34.59331678      32.13080808       0.00000000  T       0.00000000       0.00000000       0.00000000
Nb      36.24940753      33.79065873       1.65672269  T       0.00000000       0.00000000       0.00000000
Nb      34.57147074      35.43146002       0.00000000  T       0.00000000       0.00000000       0.00000000
Nb      36.22652192      37.09074067       1.65672269  T       0.00000000       0.00000000       0.00000000
Nb      34.54620392      38.73100010       0.00000000  T       0.00000000       0.00000000       0.00000000
Nb      36.19989596      40.38962221       1.65672269  T       0.00000000       0.00000000       0.00000000
Nb      34.51693963      42.02947560       0.00000000  T       0.00000000       0.00000000       0.00000000
Nb      36.16781718      43.68396723       1.65672269  F      -0.00006580       0.00000051       0.00000000
Nb      34.48116652      45.32348147      -0.00000000  F      -0.00004348       0.00001508       0.00000000
Nb      36.13163450      46.97875464       1.65672269  F      -0.00000791       0.00003730      -0.00000000
Nb      34.44261103      48.61836004      -0.00000000  F       0.00000205       0.00010009       0.00000000
Nb      36.08991114      50.27326416       1.65672269  F       0.00004876       0.00005689       0.00000000
Nb      34.39756145      51.91410149       0.00000000  F       0.00002476       0.00001004      -0.00000000
Nb      36.04038122      53.56800955       1.65672269  F       0.00002897       0.00002581       0.00000000
Nb      34.34435767      55.20961808       0.00000000  F       0.00004843       0.00000403       0.00000000
Nb      35.98247135      56.86330379       1.65672269  F      -0.00001405       0.00000755      -0.00000000
Nb      34.28351410      58.50651910      -0.00000000  F       0.00005551      -0.00000686       0.00000000
Nb      35.91615149      60.16031452       1.65672269  F      -0.00006569      -0.00000907       0.00000000
Nb      34.21506806      61.80572639       0.00000000  F      -0.00006947      -0.00002884       0.00000000
Nb      35.84201989      63.46016162       1.65672269  F      -0.00017860      -0.00007666      -0.00000000
Nb      34.14004608      65.10803968       0.00000000  F      -0.00011008      -0.00011399       0.00000000
Nb      35.76173066      66.76383012       1.65672269  F      -0.00015545      -0.00021365      -0.00000000
Nb      34.06070747      68.41424970       0.00000000  F      -0.00007397      -0.00006505       0.00000000
Nb      35.67799044      70.07215771       1.65672269  F      -0.00012907      -0.00017565      -0.00000000
Nb      33.97982549      71.72514987       0.00000000  F      -0.00003750      -0.00007291      -0.00000000
Nb      38.90132887      73.39293801       1.65672269  F       0.00002480       0.00016444      -0.00000000
Nb      37.20403443      75.04829818      -0.00000000  F      -0.00001714      -0.00001128       0.00000000
Nb      38.81144177      76.71293563       1.65672269  F       0.00003643       0.00010231       0.00000000
Nb      37.11976985      78.37018467      -0.00000000  F      -0.00002000       0.00004998       0.00000000
Nb      38.72675521      80.03792643       1.65672269  F       0.00000403       0.00006580       0.00000000
Nb      37.04106762      81.69614909       0.00000000  F      -0.00003961       0.00007155       0.00000000
Nb      38.64935965      83.36656417       1.65672269  F      -0.00004362       0.00002734      -0.00000000
Nb      36.96946017      85.02489554      -0.00000000  F      -0.00008013       0.00008773      -0.00000000
Nb      38.58042224      86.69737105       1.65672269  F      -0.00004570       0.00000590      -0.00000000
Nb      36.90587051      88.35512395      -0.00000000  F      -0.00002403       0.00008362       0.00000000
Nb      38.52033965      90.02915090       1.65672269  F      -0.00005043       0.00005277      -0.00000000
Nb      36.85049574      91.68613120       0.00000000  F      -0.00006211       0.00006171       0.00000000
Nb      38.46851293      93.36104799       1.65672269  F      -0.00007885       0.00013262      -0.00000000
Nb      36.80222621      95.01692507       0.00000000  F      -0.00000140       0.00008357       0.00000000
Nb      38.42421482      96.69224029       1.65672269  F      -0.00006187       0.00013391      -0.00000000
Nb      36.76118591      98.34689380       0.00000000  F       0.00000721       0.00005904      -0.00000000
Nb      38.38550089     100.02317027       1.65672269  F       0.00002038       0.00008289       0.00000000
Nb      36.72332361     101.67691898      -0.00000000  F      -0.00001080       0.00009865      -0.00000000
Nb      38.35187632     103.35183807       1.65672269  F       0.00004754       0.00008300      -0.00000000
Nb      36.69601193     105.00282468       0.00000000  T       0.00000000       0.00000000       0.00000000
Nb      38.32770457     106.67678687       1.65672269  T       0.00000000       0.00000000       0.00000000
Nb      36.66920075     108.33081807       0.00000000  T       0.00000000       0.00000000       0.00000000
Nb      38.30356165     110.00418259       1.65672269  T       0.00000000       0.00000000       0.00000000
Nb      36.64620456     111.65759613       0.00000000  T       0.00000000       0.00000000       0.00000000
Nb      38.28293071     113.33026229       1.65672269  T       0.00000000       0.00000000       0.00000000
Nb      36.62642723     114.98316207       0.00000000  T       0.00000000       0.00000000       0.00000000
Nb      38.26523851     116.65507196       1.65672269  T       0.00000000       0.00000000       0.00000000
Nb      39.61698218      27.20606730       1.65672269  T       0.00000000       0.00000000       0.00000000
Nb      37.94368096      28.84783110       0.00000000  T       0.00000000       0.00000000       0.00000000
Nb      39.60126419      30.50893183       1.65672269  T       0.00000000       0.00000000       0.00000000
Nb      37.92601315      32.14985644       0.00000000  T       0.00000000       0.00000000       0.00000000
Nb      39.58291582      33.81050175       1.65672269  T       0.00000000       0.00000000       0.00000000
Nb      37.90544190      35.45061958       0.00000000  T       0.00000000       0.00000000       0.00000000
Nb      39.56141205      37.11069839       1.65672269  T       0.00000000       0.00000000       0.00000000
Nb      37.88141410      38.75007903       0.00000000  T       0.00000000       0.00000000       0.00000000
Nb      39.53598750      40.40660023       1.65672269  F      -0.00002499      -0.00003785       0.00000000
Nb      37.85281007      42.04509472       0.00000000  F      -0.00001218      -0.00005029      -0.00000000
Nb      39.50643326      43.70218333       1.65672269  F       0.00002274       0.00003945      -0.00000000
Nb      37.81978562      45.34016253      -0.00000000  F       0.00003357       0.00001747       0.00000000
Nb      39.47118607      46.99625456       1.65672269  F       0.00000616       0.00005342      -0.00000000
Nb      37.78117288      48.63417491      -0.00000000  F       0.00001369      -0.00001255       0.00000000
Nb      39.42938812      50.28950922       1.65672269  F      -0.00004349      -0.00000092       0.00000000
Nb      37.73550451      51.92796845       0.00000000  F      -0.00004967      -0.00001934      -0.00000000
Nb      39.37926192      53.58247878       1.65672269  F      -0.00006831      -0.00008539      -0.00000000