507
Lattice="93.31713301526463 0.0 0.0 0.0 80.81500779955073 0.0 0.0 0.0 2.7493823981658614" Properties=species:S:1:pos:R:3:fix_mask:L:1:forces:R:3 energy=-6438.051959466202 pbc="T T T"
W       20.72765399      28.43499706      -0.27657522  T       0.00000000       0.00000000       0.00000000
W       19.43281632      30.67969623       0.60241153  T       0.00000000       0.00000000       0.00000000
W       18.13838697      32.92453189      -1.26679725  T       0.00000000       0.00000000       0.00000000
W       20.73004558      32.92453016      -0.34050602  T       0.00000000       0.00000000       0.00000000
W       19.43598880      35.16941955       0.53797236  T       0.00000000       0.00000000       0.00000000
W       18.14210620      37.41432770      -1.33075890  T       0.00000000       0.00000000       0.00000000
W       20.73398340      37.41432271      -0.41013022  T       0.00000000       0.00000000       0.00000000
W       16.84822239      39.65921506      -0.44767139  T       0.00000000       0.00000000       0.00000000
W       19.44030084      39.65921473       0.46975264  T       0.00000000       0.00000000       0.00000000
W       18.14646345      41.90407071       1.35266495  T       0.00000000       0.00000000       0.00000000
W       20.73874479      41.90406926       2.26702291  T       0.00000000       0.00000000       0.00000000
W       19.44480341      44.14889491       3.15031933  T       0.00000000       0.00000000       0.00000000
W       18.15049161      46.39371737       1.28769702  T       0.00000000       0.00000000       0.00000000
W       20.74307845      46.39370897       2.19609038  T       0.00000000       0.00000000       0.00000000
W       19.44842889      48.63856084       3.08427330  T       0.00000000       0.00000000       0.00000000
W       20.74601531      50.88350044       2.12994696  T       0.00000000       0.00000000       0.00000000
W       20.74736698      55.37372337       2.07075569  T       0.00000000       0.00000000       0.00000000
W       25.91194507      19.45891579      -1.04186633  T       0.00000000       0.00000000       0.00000000
W       28.50477238      19.46009322      -0.09800420  T       0.00000000       0.00000000       0.00000000
W       24.61521453      21.70247033      -0.16228450  T       0.00000000       0.00000000       0.00000000
W       27.20777984      21.70334071       0.77962808  T       0.00000000       0.00000000       0.00000000
W       25.91112632      23.94690004      -1.09363375  T       0.00000000       0.00000000       0.00000000
W       28.50360999      23.94772202      -0.15046258  T       0.00000000       0.00000000       0.00000000
W       23.31886307      23.94633232       0.71632909  T       0.00000000       0.00000000       0.00000000
W       22.02299410      26.19051895      -1.15487804  T       0.00000000       0.00000000       0.00000000
W       24.61496943      26.19083346      -0.21841107  T       0.00000000       0.00000000       0.00000000
W       27.20709627      26.19131732       0.72158472  T       0.00000000       0.00000000       0.00000000
W       25.91123374      28.43536216      -1.15647004  T       0.00000000       0.00000000       0.00000000
W       28.50318230      28.43574024      -0.21620186  T       0.00000000       0.00000000       0.00000000
W       23.31941212      28.43513458       0.65661101  T       0.00000000       0.00000000       0.00000000
W       22.02446644      30.67973452      -1.21723236  T       0.00000000       0.00000000       0.00000000
W       24.61610349      30.67980786      -0.28493818  T       0.00000000       0.00000000       0.00000000
W       27.20775748      30.67994485       0.65067277  T       0.00000000       0.00000000       0.00000000
W       25.91319472      32.92455778      -1.23095995  T       0.00000000       0.00000000       0.00000000
W       28.50277495      32.92374060      -0.29556346  F      -0.00000022       0.00000013       0.00000019
W       23.32164810      32.92453597       0.58770113  T       0.00000000       0.00000000       0.00000000
W       22.02768829      35.16941016      -1.28714965  T       0.00000000       0.00000000       0.00000000
W       24.61931286      35.16940069      -0.36122248  T       0.00000000       0.00000000       0.00000000
W       27.21084688      35.16939338       0.56695837  T       0.00000000       0.00000000       0.00000000
W       25.91756472      37.41430816      -1.31533671  T       0.00000000       0.00000000       0.00000000
W       28.50456770      37.41314692      -0.38960174  F       0.00000011      -0.00000008       0.00000028
W       23.32580838      37.41431636       0.51136992  T       0.00000000       0.00000000       0.00000000
W       22.03236642      39.65921430      -1.36201193  T       0.00000000       0.00000000       0.00000000
W       24.62441484      39.65921372      -0.44413510  T       0.00000000       0.00000000       0.00000000
W       27.21337774      39.65862573       0.47456606  F       0.00000020       0.00000009       0.00000026
W       25.92340419      41.90406474       1.34486483  T       0.00000000       0.00000000       0.00000000
W       28.51057442      41.90366738       2.25752533  F       0.00000004       0.00000000       0.00000032
W       23.33105502      41.90406734       3.18093631  T       0.00000000       0.00000000       0.00000000
W       22.03729544      44.14888727       1.31171783  T       0.00000000       0.00000000       0.00000000
W       24.62985601      44.14887787       2.22125585  T       0.00000000       0.00000000       0.00000000
W       27.21939865      44.14846425       3.12876968  F      -0.00000001      -0.00000004       0.00000023
W       25.92846431      46.39369849       1.25810050  T       0.00000000       0.00000000       0.00000000
W       28.51854810      46.39367381       2.15859050  F       0.00000018      -0.00000006       0.00000002
W       23.33573237      46.39370165       3.10286271  T       0.00000000       0.00000000       0.00000000
W       22.04108655      48.63857122       1.23971416  T       0.00000000       0.00000000       0.00000000
W       24.63378868      48.63859927       2.14220210  T       0.00000000       0.00000000       0.00000000
W       27.22652217      48.63866224       3.04161148  T       0.00000000       0.00000000       0.00000000
W       25.93121951      50.88371663       1.17987169  T       0.00000000       0.00000000       0.00000000
W       28.52373892      50.88396300       2.07412553  T       0.00000000       0.00000000       0.00000000
W       23.33862789      50.88357812       3.03110243  T       0.00000000       0.00000000       0.00000000
W       22.04311837      53.12862512       1.17459715  T       0.00000000       0.00000000       0.00000000
W       24.63555850      53.12884572       2.07216794  T       0.00000000       0.00000000       0.00000000
W       27.22788416      53.12920154       2.96619401  T       0.00000000       0.00000000       0.00000000
W       25.93183448      55.37447293       1.11306220  T       0.00000000       0.00000000       0.00000000
W       28.52379687      55.37515160       2.00342910  T       0.00000000       0.00000000       0.00000000
W       23.33966845      55.37402249       2.96818664  T       0.00000000       0.00000000       0.00000000
W       24.63567703      57.61975117       2.01256807  T       0.00000000       0.00000000       0.00000000
W       27.22752316      57.62050213       2.90395248  T       0.00000000       0.00000000       0.00000000
W       25.93123015      59.86581887       1.05772523  T       0.00000000       0.00000000       0.00000000
W       28.52277519      59.86689838       1.94679578  T       0.00000000       0.00000000       0.00000000
W       27.22646072      62.11217687       2.85357580  T       0.00000000       0.00000000       0.00000000
W       33.69236169      14.97592102      -0.91061552  T       0.00000000       0.00000000       0.00000000
W       36.28564153      14.97793665       0.04128044  T       0.00000000       0.00000000       0.00000000
W       31.09913672      14.97406407       0.88979777  T       0.00000000       0.00000000       0.00000000
W       29.80193768      17.21704484      -0.97763170  T       0.00000000       0.00000000       0.00000000
W       32.39512741      17.21879058      -0.02909708  T       0.00000000       0.00000000       0.00000000
W       34.98845203      17.22081734       0.92291526  T       0.00000000       0.00000000       0.00000000
W       33.69110244      19.46349129      -0.94847947  T       0.00000000       0.00000000       0.00000000
W       36.28454656      19.46572160       0.00720445  T       0.00000000       0.00000000       0.00000000
W       31.09782788      19.46160717       0.84946070  T       0.00000000       0.00000000       0.00000000
W       29.80059254      21.70452852      -1.02407198  T       0.00000000       0.00000000       0.00000000
W       32.39368542      21.70611516      -0.07404485  T       0.00000000       0.00000000       0.00000000
W       34.98705691      21.70815815       0.88087079  T       0.00000000       0.00000000       0.00000000
W       33.68950208      23.95055391      -0.99918535  T       0.00000000       0.00000000       0.00000000
W       36.28115024      23.95065183      -0.03736878  F       0.00000017       0.00000004      -0.00000005
W       31.09638251      23.94890057       0.79720575  T       0.00000000       0.00000000       0.00000000
W       29.79945500      26.19206195      -1.08342678  T       0.00000000       0.00000000       0.00000000
W       32.39214545      26.19320007      -0.13363853  T       0.00000000       0.00000000       0.00000000
W       34.98221313      26.19164603       0.82633562  F       0.00000016       0.00000005      -0.00000004
W       33.68355365      28.43413206      -1.06418649  F       0.00000006      -0.00000010       0.00000001
W       36.27513239      28.43375799      -0.10011994  F      -0.00000007      -0.00000012      -0.00000005
W       31.09376068      28.43516145       0.73089251  F      -0.00000004      -0.00000024       0.00000009
W       29.79727196      30.67887847      -1.15688013  F      -0.00000029      -0.00000030       0.00000025
W       32.38580009      30.67709393      -0.20849448  F       0.00000021       0.00000010       0.00000010
W       34.97623376      30.67622766       0.74884668  F      -0.00000005       0.00000011       0.00000008
W       33.67924455      32.92003265      -1.15501520  F       0.00000006      -0.00000005       0.00000000
W       36.26871497      32.91850511      -0.19557792  F       0.00000020      -0.00000002       0.00000009
W       31.09025034      32.92151691       0.64570494  F       0.00000019      -0.00000005       0.00000013
W       29.79706742      35.16709896      -1.24841338  F       0.00000041       0.00000016       0.00000016
W       32.38492720      35.16537093      -0.30957075  F      -0.00000007      -0.00000007       0.00000004
W       34.97285807      35.16340831       0.63719199  F      -0.00000014      -0.00000020       0.00000001
W       33.68029812      37.40995203      -1.27675001  F       0.00000021       0.00000007      -0.00000017
W       36.26718057      37.40771161      -0.33613944  F       0.00000014      -0.00000016       0.00000007
W       31.09262346      37.41165248       0.53930420  F       0.00000012      -0.00000001       0.00000019
W       29.80130549      39.65790177      -1.35493133  F       0.00000013      -0.00000017       0.00000030
W       32.38979545      39.65692686      -0.43385284  F       0.00000020       0.00000004      -0.00000021
W       34.97745078      39.65568575       0.48885899  F       0.00000000       0.00000005      -0.00000014
W       33.68837480      41.90342733       1.32861139  F       0.00000017      -0.00000022      -0.00000027
W       36.27629396      41.90381034       2.23325310  F       0.00000017      -0.00000020      -0.00000016
W       31.09956246      41.90346740       3.16896847  F       0.00000018       0.00000001      -0.00000005
W       29.80872834      44.14921892       1.28420117  F      -0.00000002      -0.00000030       0.00000009
W       32.39840906      44.15003120       2.18461551  F       0.00000015      -0.00000005      -0.00000009
W       34.98763369      44.15179770       3.07785565  F       0.00000012      -0.00000013      -0.00000018
W       33.69737551      46.39778344       1.19315097  F       0.00000016      -0.00000017       0.00000002
W       36.28715560      46.40169891       2.06970611  F       0.00000028       0.00000006      -0.00000012
W       31.10743515      46.39551216       3.05437366  F      -0.00000002      -0.00000017       0.00000013
W       29.81624681      48.63977663       1.18550644  F       0.00000013      -0.00000003       0.00000000
W       32.40556969      48.64267978       2.07190697  F       0.00000021      -0.00000014       0.00000006
W       34.99578616      48.64631780       2.94845512  F       0.00000027       0.00000001      -0.00000003
W       33.70294789      50.89029469       1.08939729  F       0.00000014      -0.00000006       0.00000001
W       36.29322421      50.89497428       1.95697317  F       0.00000011       0.00000003      -0.00000010
W       31.11363368      50.88649169       2.96048403  F       0.00000030      -0.00000028      -0.00000018
W       29.82001294      53.12977759       1.10634969  T       0.00000000       0.00000000       0.00000000
W       32.41029945      53.13320184       1.98714981  F       0.00000003      -0.00000013      -0.00000011
W       34.99923526      53.13800511       2.85954239  F       0.00000017      -0.00000012      -0.00000010
W       33.70537426      55.38076578       1.01677296  F      -0.00000004      -0.00000009      -0.00000022
W       36.29508100      55.38485399       1.88641842  F      -0.00000033      -0.00000012      -0.00000005
W       31.11547086      55.37616879       2.88902857  T       0.00000000       0.00000000       0.00000000
W       29.81911375      57.62156439       1.04194589  T       0.00000000       0.00000000       0.00000000
W       32.41039441      57.62304070       1.92460144  T       0.00000000       0.00000000       0.00000000
W       35.00134056      57.62502547       2.80181485  T       0.00000000       0.00000000       0.00000000
W       33.70509275      59.87017922       0.96335023  T       0.00000000       0.00000000       0.00000000
W       36.29589595      59.87244646       1.83933004  T       0.00000000       0.00000000       0.00000000
W       31.11406521      59.86833201       2.83196244  T       0.00000000       0.00000000       0.00000000
W       29.81777342      62.11355851       0.99156822  T       0.00000000       0.00000000       0.00000000
W       32.40887654      62.11528097       1.87532396  T       0.00000000       0.00000000       0.00000000
W       34.99980404      62.11734065       2.75519231  T       0.00000000       0.00000000       0.00000000
W       33.70371563      64.36222950       0.92177354  T       0.00000000       0.00000000       0.00000000
W       36.29466293      64.36432758       1.80155860  T       0.00000000       0.00000000       0.00000000
W       31.11268439      64.36034321       2.78807898  T       0.00000000       0.00000000       0.00000000
W       32.40762991      66.60711419       1.83781499  T       0.00000000       0.00000000       0.00000000
W       34.99867890      66.60903179       2.72082708  T       0.00000000       0.00000000       0.00000000
W       37.58264517      12.73476296      -0.84389257  T       0.00000000       0.00000000       0.00000000
W       40.17577100      12.73652420       0.10954057  T       0.00000000       0.00000000       0.00000000
W       42.76880676      12.73797942       1.06477227  T       0.00000000       0.00000000       0.00000000
W       41.47209916      14.98182256      -0.79621807  T       0.00000000       0.00000000       0.00000000
W       44.06518018      14.98324838       0.16294103  T       0.00000000       0.00000000       0.00000000
W       38.87890834      14.97997177       0.99597798  T       0.00000000       0.00000000       0.00000000
W       37.58184074      17.22302956      -0.87094177  T       0.00000000       0.00000000       0.00000000
W       40.17520479      17.22523788       0.08791438  T       0.00000000       0.00000000       0.00000000
W       42.76846685      17.22716410       1.04964509  T       0.00000000       0.00000000       0.00000000
W       41.47154329      19.47057250      -0.81820595  T       0.00000000       0.00000000       0.00000000
W       44.06488357      19.47253805       0.14911580  T       0.00000000       0.00000000       0.00000000
W       38.87806635      19.46817069       0.96718169  T       0.00000000       0.00000000       0.00000000
W       37.58064684      21.71063680      -0.90831074  T       0.00000000       0.00000000       0.00000000
W       40.17251486      21.71109722       0.06033635  F      -0.00000002      -0.00000003      -0.00000008
W       42.76664648      21.71354632       1.03261125  F       0.00000016       0.00000001       0.00000000
W       41.46790851      23.95314079      -0.84233550  F       0.00000006      -0.00000005      -0.00000015
W       44.06271613      23.95483108       0.13935628  F       0.00000015      -0.00000003      -0.00000012
W       38.87401693      23.95155632       0.93121118  F       0.00000008      -0.00000012      -0.00000017
W       37.57460171      26.19225790      -0.95517753  F       0.00000001      -0.00000001      -0.00000012
W       40.16848100      26.19382092       0.02218796  F      -0.00000002      -0.00000006       0.00000008
W       42.76359283      26.19543328       1.00912928  F       0.00000020       0.00000005       0.00000008
W       41.46301090      28.43580540      -0.88435111  F      -0.00000001      -0.00000035       0.00000020
W       44.05993317      28.43679199       0.11849940  F      -0.00000001       0.00000009       0.00000018
W       38.86815824      28.43448062       0.87554220  F       0.00000035       0.00000004       0.00000016
W       37.56768959      30.67567121      -1.03100441  F       0.00000030      -0.00000012       0.00000023
W       40.16107494      30.67609039      -0.04474231  F       0.00000014      -0.00000014       0.00000027
W       42.75746854      30.67673876       0.96289003  F       0.00000019      -0.00000019       0.00000012
W       41.45298581      32.91715495      -0.96821587  F      -0.00000032       0.00000007       0.00000036
W       44.05198363      32.91604309       0.06945717  F       0.00000001       0.00000000       0.00000020
W       38.85937206      32.91715453       0.78012848  F       0.00000001      -0.00000035       0.00000016
W       37.56087831      35.16105035      -1.15272078  F      -0.00000004      -0.00000035       0.00000005
W       40.14999632      35.15854608      -0.17141944  F       0.00000029       0.00000011       0.00000009
W       42.74313287      35.15781384       0.85125169  F      -0.00000035       0.00000007       0.00000000
W       41.43967234      37.40039742      -1.15039909  F      -0.00000032      -0.00000018       0.00000003
W       44.03100220      37.39467046      -0.10006587  F       0.00000028      -0.00000004       0.00000008
W       38.85346616      37.40460270       0.61771768  F       0.00000042      -0.00000011      -0.00000020
W       37.56415566      39.65384050      -1.33467503  F       0.00000011      -0.00000007      -0.00000017
W       40.14965325      39.65066727      -0.40247075  F       0.00000032      -0.00000029      -0.00000018
W       42.73070232      39.64738948       0.55107904  F       0.00000037       0.00000004       0.00000030
W       41.44422638      41.91086729       1.25556889  F      -0.00000011      -0.00000022      -0.00000013
W       44.01441516      41.94039625       2.06616153  F      -0.00000020      -0.00000002       0.00000007
W       38.86290438      41.90503351       3.12917725  F       0.00000008      -0.00000013      -0.00000023
W       37.57631648      44.15536029       1.20934238  F       0.00000004      -0.00000021      -0.00000022
W       40.16439768      44.16326753       2.06760461  F       0.00000004      -0.00000012       0.00000002
W       42.75512313      44.18110004       2.87767477  F       0.00000009      -0.00000004       0.00000004
W       41.46969493      46.41940095       1.00576879  F      -0.00000016       0.00000005      -0.00000013
W       44.06567596      46.43244116       1.78528953  F      -0.00000007       0.00000006       0.00000001
W       38.87733131      46.40841394       2.92788737  F       0.00000033      -0.00000016       0.00000003
W       37.58618819      48.65189901       1.06152190  F       0.00000010       0.00000008      -0.00000017
W       40.17753523      48.65992577       1.90380521  F       0.00000014       0.00000005      -0.00000026
W       42.77020626      48.66976044       2.71977857  F       0.00000005       0.00000024      -0.00000017
W       41.47527814      50.90878625       0.89863919  F       0.00000022      -0.00000009       0.00000007
W       44.06710681      50.91608446       1.72097743  F       0.00000006       0.00000027      -0.00000006
W       38.88398157      50.90115670       2.81071385  F       0.00000025      -0.00000004       0.00000002
W       37.58963367      53.14296397       0.97267865  F      -0.00000008      -0.00000007      -0.00000002
W       40.18040985      53.14895791       1.82381932  F       0.00000023       0.00000006       0.00000004
W       42.77170952      53.15503692       2.66421389  F       0.00000003       0.00000023       0.00000001
W       41.47639362      55.39496841       0.85085199  F       0.00000030      -0.00000001      -0.00000004
W       44.06793907      55.39919812       1.69711200  F       0.00000002      -0.00000005      -0.00000022
W       38.88536936      55.39001523       2.74737270  F       0.00000009       0.00000008      -0.00000000
W       37.59083344      57.63077210       0.92004329  F       0.00000023       0.00000003      -0.00000008
W       40.18105440      57.63538978       1.78244976  F       0.00000001       0.00000014       0.00000003
W       42.77243215      57.63925683       2.63888083  F       0.00000007       0.00000002       0.00000006
W       41.47726199      59.87764297       0.82726024  T       0.00000000       0.00000000       0.00000000
W       44.06790624      59.88203157       1.68575278  F       0.00000000      -0.00000001       0.00000007
W       38.88657193      59.87502716       2.71035379  T       0.00000000       0.00000000       0.00000000
W       37.59062923      62.11965578       0.88168052  T       0.00000000       0.00000000       0.00000000
W       40.18145548      62.12203110       1.75369547  T       0.00000000       0.00000000       0.00000000
W       42.77238245      62.12415200       2.62233270  T       0.00000000       0.00000000       0.00000000
W       41.47661695      64.36850738       0.80247752  T       0.00000000       0.00000000       0.00000000
W       44.06774972      64.37008229       1.67388654  T       0.00000000       0.00000000       0.00000000
W       38.88560395      64.36649544       2.67814731  T       0.00000000       0.00000000       0.00000000
W       37.58971754      66.61102125       0.85176621  T       0.00000000       0.00000000       0.00000000
W       40.18080774      66.61291616       1.72961950  T       0.00000000       0.00000000       0.00000000
W       42.77199370      66.61450484       2.60540350  T       0.00000000       0.00000000       0.00000000
W       41.47619852      68.85893970       0.78501887  T       0.00000000       0.00000000       0.00000000
W       44.06752466      68.86011127       1.66302023  T       0.00000000       0.00000000       0.00000000
W       38.88496308      68.85737664       2.65496363  T       0.00000000       0.00000000       0.00000000
W       49.25104892      10.49436165      -0.66845704  T       0.00000000       0.00000000       0.00000000
W       46.65822668      10.49436165       1.12668744  T       0.00000000       0.00000000       0.00000000
W       45.36175103      12.73894498      -0.72808582  T       0.00000000       0.00000000       0.00000000
W       47.95463780      12.73928383       0.22911520  T       0.00000000       0.00000000       0.00000000
W       50.54752457      12.73894498       1.18631622  T       0.00000000       0.00000000       0.00000000
W       49.25111089      14.98402824      -0.66514106  T       0.00000000       0.00000000       0.00000000
W       51.84409542      14.98324838       0.29528937  T       0.00000000       0.00000000       0.00000000
W       46.65816471      14.98402824       1.12337146  T       0.00000000       0.00000000       0.00000000
W       45.36159790      17.22849335      -0.73587857  T       0.00000000       0.00000000       0.00000000
W       47.95463780      17.22896956       0.22911520  T       0.00000000       0.00000000       0.00000000
W       50.54767770      17.22849335       1.19410897  T       0.00000000       0.00000000       0.00000000
W       49.25120104      19.47365610      -0.66041993  T       0.00000000       0.00000000       0.00000000
W       51.84439203      19.47253805       0.30911460  T       0.00000000       0.00000000       0.00000000
W       46.65807456      19.47365610       1.11865033  T       0.00000000       0.00000000       0.00000000
W       45.36067122      21.71448137      -0.74139077  F       0.00000007       0.00000007      -0.00000010
W       47.95513840      21.71461214       0.23546919  F       0.00000007       0.00000013      -0.00000000
W       50.54957872      21.71424998       1.21166989  F       0.00000025      -0.00000020      -0.00000015
W       49.25348242      23.95544441      -0.63963945  F       0.00000016      -0.00000017      -0.00000014
W       51.84856944      23.95435913       0.34266329  F       0.00000014      -0.00000013      -0.00000018
W       46.65805385      23.95562314       1.12442381  F       0.00000033       0.00000001      -0.00000009
W       45.35986758      26.19657671      -0.74610394  F       0.00000013       0.00000007       0.00000013
W       47.95664621      26.19684261       0.25082712  F       0.00000006       0.00000010       0.00000010
W       50.55309878      26.19622958       1.24536844  F       0.00000016      -0.00000030       0.00000008
W       49.25704259      28.43723062      -0.60859605  F      -0.00000013      -0.00000016      -0.00000002
W       51.85425765      28.43651991       0.39481481  F       0.00000025      -0.00000001      -0.00000012
W       46.65843458      28.43727445       1.12953070  F      -0.00000005      -0.00000025       0.00000006
W       45.35758177      30.67670869      -0.75971157  F      -0.00000005      -0.00000008       0.00000006
W       47.95963701      30.67689722       0.27422463  F      -0.00000009      -0.00000034      -0.00000007
W       50.55999397      30.67723346       1.30159402  F       0.00000009      -0.00000014      -0.00000017
W       49.26560850      32.91634771      -0.55001545  F       0.00000007      -0.00000012      -0.00000023
W       51.86506216      32.91758943       0.48884831  F       0.00000014      -0.00000027      -0.00000032
W       46.65868411      32.91388500       1.13410148  F      -0.00000004      -0.00000005      -0.00000003
W       45.34780503      35.14836042      -0.80389766  F       0.00000024       0.00000001      -0.00000002
W       47.96969770      35.14841705       0.32686056  F       0.00000022      -0.00000012      -0.00000037
W       50.57508014      35.15811199       1.42330465  F       0.00000014       0.00000011      -0.00000064
W       49.28732640      37.39480860      -0.36996016  F       0.00000016       0.00000006      -0.00000067
W       51.87940294      37.40066392       0.68252849  F       0.00000023      -0.00000023      -0.00000027
W       46.65850751      37.35911191       1.13715591  F       0.00000035       0.00000026      -0.00000012
W       45.32608820      39.64396060      -1.14777424  F      -0.00000014       0.00000040      -0.00000022
W       47.99276408      39.64456082       0.68520750  F      -0.00000003       0.00000011      -0.00000030
W       50.58882226      39.64809700       1.73747427  F      -0.00000032       0.00000006      -0.00000020
W       49.30611035      41.94237502       0.23320267  F      -0.00000032       0.00000026      -0.00000006
W       51.87623025      41.91227888       1.04128162  F      -0.00000014      -0.00000011       0.00000022
W       46.65993689      41.95333681       2.52447541  F      -0.00000014       0.00000025       0.00000003
W       45.35897618      44.19903369       0.82933744  F       0.00000016       0.00000013      -0.00000032
W       47.96072744      44.19974172       1.47590355  F       0.00000015       0.00000009      -0.00000042
W       50.56520014      44.18287302       2.17553875  F      -0.00000006      -0.00000008       0.00000006
W       49.25407520      46.43355470       0.52447020  F      -0.00000007       0.00000015      -0.00000022
W       51.85040140      46.42116204       1.30285321  F       0.00000005      -0.00000024       0.00000020
W       46.65980105      46.44079185       2.52980051  F       0.00000006       0.00000010      -0.00000013
W       45.36297732      48.67810899       0.76448880  F       0.00000008       0.00000016       0.00000013
W       47.95664144      48.67865351       1.55048304  F      -0.00000006       0.00000054      -0.00000009
W       50.54954709      48.67118134       2.34403630  F       0.00000004      -0.00000008      -0.00000020
W       49.25251343      50.91710195       0.59885744  F       0.00000024       0.00000002      -0.00000023
W       51.84440999      50.91054329       1.42068948  F       0.00000014      -0.00000011      -0.00000023
W       46.65979904      50.91936490       2.53469705  F      -0.00000001       0.00000028      -0.00000019