1312
Lattice="120.63910674415995 0.0 0.0 0.0 114.28968007341469 0.0 0.0 0.0 3.1747133353726302" Properties=species:S:1:pos:R:3:fix_mask:L:1:forces:R:3 energy=-16754.018373733925 pbc="T T T"
W       15.25872071      47.90926032       1.58735667  T       0.00000000       0.00000000       0.00000000
W       15.19915361      51.07752982       1.58735667  T       0.00000000       0.00000000       0.00000000
W       15.13731067      54.24823022       1.58735667  T       0.00000000       0.00000000       0.00000000
W       18.24850044      57.43106631       1.58735667  T       0.00000000       0.00000000       0.00000000
W       18.18129721      60.60744054       1.58735667  T       0.00000000       0.00000000       0.00000000
W       18.11594980      63.78682220       1.58735667  T       0.00000000       0.00000000       0.00000000
W       18.05380270      66.96881917       1.58735667  T       0.00000000       0.00000000       0.00000000
W       18.60942790      38.42915252       1.58735667  T       0.00000000       0.00000000       0.00000000
W       18.55975378      41.59168936       1.58735667  T       0.00000000       0.00000000       0.00000000
W       16.93713326      43.16674415       0.00000000  T       0.00000000       0.00000000       0.00000000
W       18.50499734      44.75522444       1.58735667  T       0.00000000       0.00000000       0.00000000
W       16.88136300      46.33160121       0.00000000  T       0.00000000       0.00000000       0.00000000
W       18.44554301      47.92037422       1.58735667  T       0.00000000       0.00000000       0.00000000
W       16.82161432      49.49831793       0.00000000  T       0.00000000       0.00000000       0.00000000
W       18.38215731      51.08774896       1.58735667  T       0.00000000       0.00000000       0.00000000
W       16.75878590      52.66740317       0.00000000  T       0.00000000       0.00000000       0.00000000
W       18.31599069      54.25786700       1.58735667  T       0.00000000       0.00000000       0.00000000
W       16.69407988      55.83924041       0.00000000  T       0.00000000       0.00000000       0.00000000
W       21.42249990      57.44122852       1.58735667  T       0.00000000       0.00000000       0.00000000
W       19.80050744      59.02388241       0.00000000  T       0.00000000       0.00000000       0.00000000
W       21.35009153      60.61788289       1.58735667  T       0.00000000       0.00000000       0.00000000
W       19.73162745      62.20204267       0.00000000  T       0.00000000       0.00000000       0.00000000
W       21.28000386      63.79800092       1.58735667  T       0.00000000       0.00000000       0.00000000
W       19.66560294      65.38322826       0.00000000  T       0.00000000       0.00000000       0.00000000
W       21.21386903      66.98106129       1.58735667  T       0.00000000       0.00000000       0.00000000
W       19.60372081      68.56689265       0.00000000  T       0.00000000       0.00000000       0.00000000
W       21.15283581      70.16636166       1.58735667  T       0.00000000       0.00000000       0.00000000
W       19.54682807      71.75237810       0.00000000  T       0.00000000       0.00000000       0.00000000
W       21.09753396      73.35314559       1.58735667  T       0.00000000       0.00000000       0.00000000
W       21.89052208      32.12289109       1.58735667  T       0.00000000       0.00000000       0.00000000
W       21.85077164      35.28420164       1.58735667  T       0.00000000       0.00000000       0.00000000
W       20.23032321      36.85618059       0.00000000  T       0.00000000       0.00000000       0.00000000
W       21.80543609      38.44524464       1.58735667  T       0.00000000       0.00000000       0.00000000
W       20.18262284      40.01786492       0.00000000  T       0.00000000       0.00000000       0.00000000
W       21.75418313      41.60653526       1.58735667  T       0.00000000       0.00000000       0.00000000
W       20.12937128      43.18019230       0.00000000  T       0.00000000       0.00000000       0.00000000
W       21.69695180      44.76872805       1.58735667  T       0.00000000       0.00000000       0.00000000
W       20.07074293      46.34381335       0.00000000  T       0.00000000       0.00000000       0.00000000
W       21.63407866      47.93257894       1.58735667  T       0.00000000       0.00000000       0.00000000
W       20.00731559      49.50942426       0.00000000  T       0.00000000       0.00000000       0.00000000
W       21.56639920      51.09886468       1.58735667  T       0.00000000       0.00000000       0.00000000
W       19.94011994      52.67767856       0.00000000  T       0.00000000       0.00000000       0.00000000
W       21.49527449      54.26826420       1.58735667  T       0.00000000       0.00000000       0.00000000
W       19.87060590      55.84907945       0.00000000  T       0.00000000       0.00000000       0.00000000
W       24.59635643      57.45222387       1.58735667  T       0.00000000       0.00000000       0.00000000
W       22.97159182      59.03453205       0.00000000  T       0.00000000       0.00000000       0.00000000
W       24.51787672      60.62923405       1.58735667  T       0.00000000       0.00000000       0.00000000
W       22.89731849      62.21327568       0.00000000  T       0.00000000       0.00000000       0.00000000
W       24.44234939      63.81027213       1.58735667  T       0.00000000       0.00000000       0.00000000
W       22.82662317      65.39548158       0.00000000  T       0.00000000       0.00000000       0.00000000
W       24.37177470      66.99463119       1.58735667  T       0.00000000       0.00000000       0.00000000
W       22.76103577      68.58042519       0.00000000  T       0.00000000       0.00000000       0.00000000
W       24.30746367      70.18138730       1.58735667  T       0.00000000       0.00000000       0.00000000
W       22.70147811      71.76726181       0.00000000  T       0.00000000       0.00000000       0.00000000
W       24.25002392      73.36958448       1.58735667  T       0.00000000       0.00000000       0.00000000
W       22.64830309      74.95516642       0.00000000  T       0.00000000       0.00000000       0.00000000
W       24.19948628      76.55837073       1.58735667  T       0.00000000       0.00000000       0.00000000
W       22.60142015      78.14342661       0.00000000  T       0.00000000       0.00000000       0.00000000
W       24.15548613      79.74706754       1.58735667  T       0.00000000       0.00000000       0.00000000
W       25.12324470      28.98125118       1.58735667  T       0.00000000       0.00000000       0.00000000
W       23.50747289      30.55183082       0.00000000  T       0.00000000       0.00000000       0.00000000
W       25.08920498      32.14275957       1.58735667  T       0.00000000       0.00000000       0.00000000
W       23.47049031      33.71310886       0.00000000  T       0.00000000       0.00000000       0.00000000
W       25.04959031      35.30330526       1.58735667  T       0.00000000       0.00000000       0.00000000
W       23.42786922      36.87376167       0.00000000  T       0.00000000       0.00000000       0.00000000
W       25.00371356      38.46325750       1.58735667  T       0.00000000       0.00000000       0.00000000
W       23.37908888      40.03424314       0.00000000  T       0.00000000       0.00000000       0.00000000
W       24.95102801      41.62317493       1.58735667  T       0.00000000       0.00000000       0.00000000
W       23.32384226      43.19517742       0.00000000  T       0.00000000       0.00000000       0.00000000
W       24.89128147      44.78381694       1.58735667  T       0.00000000       0.00000000       0.00000000
W       23.26218327      46.35734402       0.00000000  T       0.00000000       0.00000000       0.00000000
W       24.82470311      47.94611110       1.58735667  T       0.00000000       0.00000000       0.00000000
W       23.19467686      49.52161612       0.00000000  T       0.00000000       0.00000000       0.00000000
W       24.74827270      51.11088764       1.58735667  F       0.00020726      -0.00002637       0.00000000
W       23.12249762      52.68884418       0.00000000  T       0.00000000       0.00000000       0.00000000
W       24.67203048      54.27969671       1.58735667  F      -0.00008167      -0.00002620      -0.00000000
W       23.04741045      55.85970074       0.00000000  T       0.00000000       0.00000000       0.00000000
W       27.76372119      57.46677871       1.58735667  F      -0.00042151       0.00023224      -0.00000000
W       26.14201006      59.04611040       0.00000000  T       0.00000000       0.00000000       0.00000000
W       27.68051231      60.64505641       1.58735667  F      -0.00071195       0.00022952      -0.00000000
W       26.06145412      62.22559566       0.00000000  T       0.00000000       0.00000000       0.00000000
W       27.60024251      63.82671419       1.58735667  F      -0.00094288      -0.00025256       0.00000000
W       25.98545831      65.40907143       0.00000000  T       0.00000000       0.00000000       0.00000000
W       27.52704368      67.00983995       1.58735667  T       0.00000000       0.00000000       0.00000000
W       25.91584374      68.59555981       0.00000000  T       0.00000000       0.00000000       0.00000000
W       27.45930624      70.19832264       1.58735667  T       0.00000000       0.00000000       0.00000000
W       25.85357807      71.78396506       0.00000000  T       0.00000000       0.00000000       0.00000000
W       27.39985387      73.38811383       1.58735667  T       0.00000000       0.00000000       0.00000000
W       25.79888148      74.97326878       0.00000000  T       0.00000000       0.00000000       0.00000000
W       27.34847326      76.57819617       1.58735667  T       0.00000000       0.00000000       0.00000000
W       25.75144008      78.16264179       0.00000000  T       0.00000000       0.00000000       0.00000000
W       27.30451091      79.76781582       1.58735667  T       0.00000000       0.00000000       0.00000000
W       25.71062653      81.35147838       0.00000000  T       0.00000000       0.00000000       0.00000000
W       27.26710811      82.95647461       1.58735667  T       0.00000000       0.00000000       0.00000000
W       28.35052819      25.84079432       1.58735667  T       0.00000000       0.00000000       0.00000000
W       26.73764876      27.41097179       0.00000000  T       0.00000000       0.00000000       0.00000000
W       28.32263330      29.00355673       1.58735667  T       0.00000000       0.00000000       0.00000000
W       26.70666100      30.57297741       0.00000000  T       0.00000000       0.00000000       0.00000000
W       28.28961501      32.16480788       1.58735667  T       0.00000000       0.00000000       0.00000000
W       26.67027385      33.73371999       0.00000000  T       0.00000000       0.00000000       0.00000000
W       28.25055841      35.32470154       1.58735667  T       0.00000000       0.00000000       0.00000000
W       26.62766634      36.89346630       0.00000000  T       0.00000000       0.00000000       0.00000000
W       28.20452486      38.48357547       1.58735667  T       0.00000000       0.00000000       0.00000000
W       26.57807606      40.05267726       0.00000000  T       0.00000000       0.00000000       0.00000000
W       28.14673496      41.64027940       1.58735667  F       0.00028093      -0.00013672      -0.00000000
W       26.52094416      43.21204523       0.00000000  T       0.00000000       0.00000000       0.00000000
W       28.08178574      44.79912626       1.58735667  F      -0.00023848       0.00046912       0.00000000
W       26.45117381      46.37168154       0.00000000  F      -0.00017819      -0.00020354      -0.00000000
W       28.00839848      47.96036639       1.58735667  F      -0.00015310      -0.00017091      -0.00000000
W       26.37735627      49.53546440      -0.00000000  F      -0.00068008      -0.00081479       0.00000000
W       27.92875395      51.12529173       1.58735667  F      -0.00081357      -0.00075814      -0.00000000
W       26.29898639      52.70172096      -0.00000000  F       0.00009135       0.00002454       0.00000000
W       27.84633362      54.29376378       1.58735667  F       0.00018573       0.00040739      -0.00000000
W       26.21880025      55.87242662      -0.00000000  F      -0.00128894       0.00050335       0.00000000
W       30.92997902      57.48322470       1.58735667  F      -0.00006804      -0.00009129       0.00000000
W       29.30373744      59.06403858      -0.00000000  F       0.00003853      -0.00000021       0.00000000
W       30.84014896      60.66290470       1.58735667  F      -0.00022785       0.00002434       0.00000000
W       29.21855457      62.24499843       0.00000000  F      -0.00025810      -0.00054548      -0.00000000
W       30.75463060      63.84660312       1.58735667  F      -0.00074213       0.00023942       0.00000000
W       29.13893338      65.42882482       0.00000000  F      -0.00035123       0.00006516      -0.00000000
W       30.67637956      67.03325505       1.58735667  F      -0.00030082       0.00103066      -0.00000000
W       29.06656250      68.61511473       0.00000000  F      -0.00106638       0.00069040      -0.00000000
W       30.60681077      70.22127971       1.58735667  F      -0.00070441       0.00018158       0.00000000
W       29.00271301      71.80290211       0.00000000  T       0.00000000       0.00000000       0.00000000
W       30.54666348      73.40919335       1.58735667  T       0.00000000       0.00000000       0.00000000
W       28.94679359      74.99371798       0.00000000  T       0.00000000       0.00000000       0.00000000
W       30.49490080      76.60058661       1.58735667  T       0.00000000       0.00000000       0.00000000
W       28.89921546      78.18418878       0.00000000  T       0.00000000       0.00000000       0.00000000
W       30.45149689      79.79101206       1.58735667  T       0.00000000       0.00000000       0.00000000
W       28.85901942      81.37368485       0.00000000  T       0.00000000       0.00000000       0.00000000
W       30.41524618      82.98000280       1.58735667  T       0.00000000       0.00000000       0.00000000
W       28.82516344      84.56184203       0.00000000  T       0.00000000       0.00000000       0.00000000
W       30.38498245      86.16734393       1.58735667  T       0.00000000       0.00000000       0.00000000
W       28.79665079      87.74849387       0.00000000  T       0.00000000       0.00000000       0.00000000
W       30.35966479      89.35299049       1.58735667  T       0.00000000       0.00000000       0.00000000
W       31.57127065      22.69990079       1.58735667  T       0.00000000       0.00000000       0.00000000
W       29.96176258      24.27050878       0.00000000  T       0.00000000       0.00000000       0.00000000
W       31.54942243      25.86487028       1.58735667  T       0.00000000       0.00000000       0.00000000
W       29.93693476      27.43426889       0.00000000  T       0.00000000       0.00000000       0.00000000
W       31.52323266      29.02803123       1.58735667  T       0.00000000       0.00000000       0.00000000
W       29.90734304      30.59633338       0.00000000  T       0.00000000       0.00000000       0.00000000
W       31.49172789      32.18931347       1.58735667  T       0.00000000       0.00000000       0.00000000
W       29.87202186      33.75674091       0.00000000  T       0.00000000       0.00000000       0.00000000
W       31.45377501      35.34877251       1.58735667  T       0.00000000       0.00000000       0.00000000
W       29.82990714      36.91569030       0.00000000  T       0.00000000       0.00000000       0.00000000
W       31.40278677      38.50300757       1.58735667  F       0.00012001      -0.00047230      -0.00000000
W       29.77475675      40.07093869      -0.00000000  F       0.00029568      -0.00015287       0.00000000
W       31.34364039      41.65851200       1.58735667  F      -0.00063521      -0.00068267      -0.00000000
W       29.71261543      43.22771422      -0.00000000  F      -0.00059502       0.00011563      -0.00000000
W       31.27489219      44.81580973       1.58735667  F      -0.00046651       0.00014591      -0.00000000
W       29.64091093      46.38715536      -0.00000000  F      -0.00044667      -0.00002232      -0.00000000
W       31.19655806      47.97590861       1.58735667  F       0.00005352       0.00038485      -0.00000000
W       29.56149654      49.54971821      -0.00000000  F      -0.00028271       0.00022322       0.00000000
W       31.11082773      51.13992938       1.58735667  F       0.00045971       0.00070809       0.00000000
W       29.47686679      52.71633221       0.00000000  F      -0.00016432      -0.00014148      -0.00000000
W       31.02089443      54.30887591       1.58735667  F       0.00051785      -0.00016500       0.00000000
W       29.39013863      55.88751027      -0.00000000  F       0.00042125       0.00010635       0.00000000
W       34.09545790      57.49977844       1.58735667  F      -0.00076784       0.00054099      -0.00000000
W       32.46561493      59.08096657      -0.00000000  F      -0.00055141       0.00030592       0.00000000
W       33.99749167      60.68115779       1.58735667  F      -0.00024029       0.00047921       0.00000000
W       32.37408118      62.26384064       0.00000000  F      -0.00022015       0.00063806      -0.00000000
W       33.90583807      63.86736315       1.58735667  F      -0.00056108       0.00062043       0.00000000
W       32.28940970      65.45044064      -0.00000000  F      -0.00037289       0.00158693       0.00000000
W       33.82329809      67.05670517       1.58735667  F      -0.00001981       0.00104035      -0.00000000
W       32.21361943      68.63943491       0.00000000  F      -0.00012042       0.00112284       0.00000000
W       33.75133701      70.24760139       1.58735667  F      -0.00028713       0.00040391       0.00000000
W       32.14786411      71.82915740       0.00000000  F      -0.00017636       0.00029416      -0.00000000
W       33.68992874      73.43854834       1.58735667  F      -0.00026314       0.00078789       0.00000000
W       32.09216347      75.01837354      -0.00000000  F      -0.00095581       0.00094301       0.00000000
W       33.63920011      76.62794472       1.58735667  F      -0.00042705       0.00090868      -0.00000000
W       32.04465154      78.20845539       0.00000000  T       0.00000000       0.00000000       0.00000000
W       33.59646729      79.81699464       1.58735667  T       0.00000000       0.00000000       0.00000000
W       32.00565954      81.39838189       0.00000000  T       0.00000000       0.00000000       0.00000000
W       33.56198254      83.00597579       1.58735667  T       0.00000000       0.00000000       0.00000000
W       31.97342021      84.58649440       0.00000000  T       0.00000000       0.00000000       0.00000000
W       33.53371102      86.19286628       1.58735667  T       0.00000000       0.00000000       0.00000000
W       31.94670664      87.77272972       0.00000000  T       0.00000000       0.00000000       0.00000000
W       33.51042620      89.37774464       1.58735667  T       0.00000000       0.00000000       0.00000000
W       34.78498051      19.55688338       1.58735667  T       0.00000000       0.00000000       0.00000000
W       33.17901092      21.12875912       0.00000000  T       0.00000000       0.00000000       0.00000000
W       34.76862406      22.72474723       1.58735667  T       0.00000000       0.00000000       0.00000000
W       33.16000106      24.29511151       0.00000000  T       0.00000000       0.00000000       0.00000000
W       34.74886996      25.89079725       1.58735667  T       0.00000000       0.00000000       0.00000000
W       33.13711250      27.45961666       0.00000000  T       0.00000000       0.00000000       0.00000000
W       34.72483768      29.05479274       1.58735667  T       0.00000000       0.00000000       0.00000000
W       33.10940238      30.62210931       0.00000000  T       0.00000000       0.00000000       0.00000000
W       34.69362789      32.21363975       1.58735667  F       0.00031545       0.00032859       0.00000000
W       33.07378519      33.78014007      -0.00000000  F       0.00024249       0.00015784       0.00000000
W       34.65372504      35.36926768       1.58735667  F      -0.00036377      -0.00042540      -0.00000000
W       33.02944416      36.93575569       0.00000000  F      -0.00015878      -0.00054832      -0.00000000
W       34.60487364      38.52468160       1.58735667  F      -0.00033118      -0.00073124       0.00000000
W       32.97474560      40.09095516      -0.00000000  F      -0.00035955      -0.00089502       0.00000000
W       34.54437828      41.67923667       1.58735667  F      -0.00061404       0.00026307       0.00000000
W       32.90964388      43.24654176      -0.00000000  F      -0.00091577      -0.00010977       0.00000000
W       34.47186007      44.83474708       1.58735667  F      -0.00021905       0.00113304      -0.00000000
W       32.83349988      46.40417108       0.00000000  F       0.00013704       0.00077410      -0.00000000
W       34.38783295      47.99305608       1.58735667  F      -0.00020696       0.00099784      -0.00000000
W       32.74791204      49.56534281      -0.00000000  F       0.00038700       0.00118242       0.00000000
W       34.29459459      51.15584320       1.58735667  F      -0.00042218       0.00132920       0.00000000
W       32.65577542      52.73139392       0.00000000  F      -0.00027176       0.00072807      -0.00000000
W       34.19580824      54.32458200       1.58735667  F      -0.00115234       0.00025979       0.00000000
W       32.56054004      55.90322340       0.00000000  F      -0.00029180      -0.00001883      -0.00000000
W       37.25957037      57.51765385       1.58735667  F       0.00048996      -0.00051661      -0.00000000
W       35.62569333      59.09896847      -0.00000000  F       0.00018677       0.00011172       0.00000000
W       37.15175284      60.70109004       1.58735667  F       0.00050299      -0.00101311      -0.00000000
W       35.52628461      62.28420750       0.00000000  F       0.00035252      -0.00060932       0.00000000
W       37.05276800      63.89021652       1.58735667  F       0.00030274      -0.00147779       0.00000000
W       35.43610384      65.47365745       0.00000000  F      -0.00005551      -0.00023039      -0.00000000
W       36.96585140      67.08261294       1.58735667  F       0.00019374      -0.00116734       0.00000000
W       35.35722359      68.66534662       0.00000000  F       0.00004730      -0.00017594      -0.00000000
W       36.89210966      70.27606546       1.58735667  F      -0.00017503      -0.00149922      -0.00000000
W       35.29016861      71.85751879      -0.00000000  F      -0.00049559       0.00001153       0.00000000
W       36.83086314      73.46877516       1.58735667  F      -0.00051899      -0.00055498       0.00000000
W       35.23404990      75.04882225      -0.00000000  F       0.00006529       0.00050591       0.00000000
W       36.78064853      76.65971680       1.58735667  F      -0.00015532       0.00073742       0.00000000
W       35.18844020      78.23787424       0.00000000  F      -0.00028608       0.00076489      -0.00000000
W       36.74023361      79.84793801       1.58735667  F      -0.00009210       0.00094357       0.00000000
W       35.15069241      81.42582355       0.00000000  T       0.00000000       0.00000000       0.00000000
W       36.70757830      83.03452921       1.58735667  T       0.00000000       0.00000000       0.00000000
W       35.12067109      84.61344738       0.00000000  T       0.00000000       0.00000000       0.00000000
W       36.68185089      86.22044294       1.58735667  T       0.00000000       0.00000000       0.00000000
W       35.09622458      87.79881959       0.00000000  T       0.00000000       0.00000000       0.00000000
W       36.66100341      89.40406315       1.58735667  T       0.00000000       0.00000000       0.00000000
W       35.07617999      90.98213984       0.00000000  T       0.00000000       0.00000000       0.00000000
W       36.64395812      92.58568220       1.58735667  T       0.00000000       0.00000000       0.00000000
W       37.98004807      19.58129902       1.58735667  T       0.00000000       0.00000000       0.00000000
W       36.37529187      21.15354593       0.00000000  T       0.00000000       0.00000000       0.00000000
W       37.96586577      22.75081289       1.58735667  T       0.00000000       0.00000000       0.00000000
W       36.35845259      24.32128577       0.00000000  T       0.00000000       0.00000000       0.00000000
W       37.94852844      25.91844540       1.58735667  T       0.00000000       0.00000000       0.00000000
W       36.33789944      27.48701783       0.00000000  T       0.00000000       0.00000000       0.00000000
W       37.92711653      29.08384488       1.58735667  T       0.00000000       0.00000000       0.00000000
W       36.31127783      30.64772396       0.00000000  F       0.00025161       0.00018444      -0.00000000
W       37.89594169      32.23982989       1.58735667  F      -0.00039047      -0.00024597      -0.00000000
W       36.27592308      33.80414021      -0.00000000  F      -0.00055426      -0.00050948       0.00000000
W       37.85859076      35.39574523       1.58735667  F      -0.00078312      -0.00007381       0.00000000
W       36.23294559      36.95959579       0.00000000  F      -0.00039605      -0.00026021      -0.00000000
W       37.81046057      38.54995967       1.58735667  F      -0.00058574       0.00052538       0.00000000
W       36.17832387      40.11376909       0.00000000  F      -0.00056639       0.00038035      -0.00000000
W       37.74916957      41.70307668       1.58735667  F      -0.00052805       0.00124908      -0.00000000
W       36.11078868      43.26773800      -0.00000000  F      -0.00066037       0.00121868      -0.00000000
W       37.67326886      44.85659712       1.58735667  F      -0.00033934       0.00089933      -0.00000000
W       36.02989241      46.42341313      -0.00000000  F      -0.00018396       0.00069730       0.00000000
W       37.58301228      48.01267419       1.58735667  F      -0.00069485      -0.00033080       0.00000000
W       35.93720972      49.58281851      -0.00000000  F      -0.00100616       0.00028881      -0.00000000
W       37.48076959      51.17368375       1.58735667  F      -0.00016894      -0.00044252       0.00000000
W       35.83587501      52.74787804       0.00000000  F      -0.00087176       0.00012209      -0.00000000
W       37.37113447      54.34170917       1.58735667  F       0.00005978      -0.00068412       0.00000000
W       35.73045724      55.91986659       0.00000000  F      -0.00053751      -0.00000130      -0.00000000
W       40.42211262      57.53676864       1.58735667  F       0.00092120       0.00068150      -0.00000000
W       38.78330904      59.11835104      -0.00000000  F       0.00070499       0.00010473       0.00000000
W       40.30214293      60.72269038       1.58735667  F       0.00022946       0.00032766      -0.00000000
W       38.67435485      62.30637940       0.00000000  F       0.00021740      -0.00055121      -0.00000000
W       40.19454157      63.91526842       1.58735667  F       0.00003314      -0.00010635      -0.00000000
W       38.57796339      65.49920695       0.00000000  F      -0.00032983      -0.00118305      -0.00000000
W       40.10312683      67.11119154       1.58735667  F      -0.00031837      -0.00058860       0.00000000
W       38.49621599      68.69399931      -0.00000000  F      -0.00032498      -0.00176067       0.00000000
W       40.02833715      70.30747165       1.58735667  F      -0.00087792      -0.00151599      -0.00000000
W       38.42884346      71.88842501       0.00000000  F      -0.00020720      -0.00201062      -0.00000000
W       39.96831929      73.50199697       1.58735667  F      -0.00027381      -0.00239605      -0.00000000
W       38.37417932      75.08092641       0.00000000  F      -0.00088740      -0.00065586      -0.00000000
W       39.92064932      76.69353843       1.58735667  F      -0.00116994      -0.00118373       0.00000000
W       38.33006180      78.27090134      -0.00000000  F      -0.00033329       0.00052167       0.00000000
W       39.88258905      79.88188329       1.58735667  F      -0.00040349       0.00019515      -0.00000000
W       38.29504341      81.45776704      -0.00000000  F       0.00048326       0.00094530       0.00000000
W       39.85300181      83.06675390       1.58735667  F       0.00098533       0.00067305      -0.00000000
W       38.26727550      84.64268877       0.00000000  T       0.00000000       0.00000000       0.00000000
W       39.82983375      86.24989298       1.58735667  T       0.00000000       0.00000000       0.00000000
W       38.24556814      87.82661886       0.00000000  T       0.00000000       0.00000000       0.00000000
W       39.81179459      89.43165846       1.58735667  T       0.00000000       0.00000000       0.00000000
W       38.22803006      91.00832621       0.00000000  T       0.00000000       0.00000000       0.00000000
W       39.79723380      92.61136997       1.58735667  T       0.00000000       0.00000000       0.00000000
W       38.21370680      94.18816333       0.00000000  T       0.00000000       0.00000000       0.00000000
W       39.78533489      95.78940698       1.58735667  T       0.00000000       0.00000000       0.00000000
W       41.18417980      16.43299373       1.58735667  T       0.00000000       0.00000000       0.00000000
W       39.58297361      18.00782867       0.00000000  T       0.00000000       0.00000000       0.00000000