1382
Lattice="124.96062170347206 0.0 0.0 0.0 126.2555850125545 0.0 0.0 0.0 2.761265718369123" Properties=species:S:1:pos:R:3:fix_mask:L:1:forces:R:3 energy=-17400.2520423266 pbc="T T T"
W       13.02095363      60.12175682      -0.43389297  T       0.00000000       0.00000000       0.00000000
W       13.01461011      64.63084777       2.28788304  T       0.00000000       0.00000000       0.00000000
W       13.00845199      69.14015130       2.24865102  T       0.00000000       0.00000000       0.00000000
W       20.85146689      37.57590803      -0.22420979  T       0.00000000       0.00000000       0.00000000
W       19.54931978      39.83104415       0.67357363  T       0.00000000       0.00000000       0.00000000
W       18.24670567      42.08594077      -1.18983765  T       0.00000000       0.00000000       0.00000000
W       20.85052388      42.08582029      -0.25946449  T       0.00000000       0.00000000       0.00000000
W       16.94363424      44.34064149      -0.29181494  T       0.00000000       0.00000000       0.00000000
W       19.54758405      44.34060763       0.63741261  T       0.00000000       0.00000000       0.00000000
W       18.24416125      46.59521200      -1.22672728  T       0.00000000       0.00000000       0.00000000
W       20.84819718      46.59521466      -0.29785602  T       0.00000000       0.00000000       0.00000000
W       15.64013753      46.59519489       0.60647238  T       0.00000000       0.00000000       0.00000000
W       16.94030695      48.84968998      -0.32924334  T       0.00000000       0.00000000       0.00000000
W       19.54438129      48.84972720       0.59834863  T       0.00000000       0.00000000       0.00000000
W       18.24014232      51.10414149      -1.26623764  T       0.00000000       0.00000000       0.00000000
W       20.84424068      51.10418961      -0.33925243  T       0.00000000       0.00000000       0.00000000
W       15.63609300      51.10409512       0.56870414  T       0.00000000       0.00000000       0.00000000
W       14.33160500      53.35847356      -1.29405191  T       0.00000000       0.00000000       0.00000000
W       16.93557543      53.35851377      -0.36896663  T       0.00000000       0.00000000       0.00000000
W       19.53960016      53.35855835       0.55664059  T       0.00000000       0.00000000       0.00000000
W       18.23468618      55.61291985      -1.30798538  T       0.00000000       0.00000000       0.00000000
W       20.83864288      55.61295561      -0.38325327  T       0.00000000       0.00000000       0.00000000
W       15.63078579      55.61288861       0.52900153  T       0.00000000       0.00000000       0.00000000
W       14.32587916      57.86729705      -1.33350843  T       0.00000000       0.00000000       0.00000000
W       16.92962252      57.86731352      -0.41048965  T       0.00000000       0.00000000       0.00000000
W       19.53340918      57.86733269       0.51283062  T       0.00000000       0.00000000       0.00000000
W       18.22812209      60.12176858      -1.35131207  T       0.00000000       0.00000000       0.00000000
W       20.83174858      60.12177608      -0.42911653  T       0.00000000       0.00000000       0.00000000
W       15.62452525      60.12176223       0.48794937  T       0.00000000       0.00000000       0.00000000
W       14.31949456      62.37627449      -1.37387133  T       0.00000000       0.00000000       0.00000000
W       16.92290143      62.37627487      -0.45307328  T       0.00000000       0.00000000       0.00000000
W       19.52631544      62.37627532       0.46776912  T       0.00000000       0.00000000       0.00000000
W       18.22106083      64.63085080       1.36595485  T       0.00000000       0.00000000       0.00000000
W       20.82426429      64.63085274       2.28548654  T       0.00000000       0.00000000       0.00000000
W       15.61784198      64.63084916       3.20759255  T       0.00000000       0.00000000       0.00000000
W       14.31301143      66.88547999       1.34690458  T       0.00000000       0.00000000       0.00000000
W       16.91606471      66.88548892       2.26545973  T       0.00000000       0.00000000       0.00000000
W       19.51908479      66.88549941       3.18379660  T       0.00000000       0.00000000       0.00000000
W       18.21425473      69.14019272       1.32231148  T       0.00000000       0.00000000       0.00000000
W       20.81708339      69.14021850       2.23924711  T       0.00000000       0.00000000       0.00000000
W       15.61137531      69.14017052       3.16627136  T       0.00000000       0.00000000       0.00000000
W       14.30701419      71.39487535       1.30708698  T       0.00000000       0.00000000       0.00000000
W       16.90979632      71.39490861       2.22351499  T       0.00000000       0.00000000       0.00000000
W       19.51252442      71.39494630       3.13949011  T       0.00000000       0.00000000       0.00000000
W       18.20838126      73.64967039       1.27998500  T       0.00000000       0.00000000       0.00000000
W       20.81100008      73.64971896       2.19456587  T       0.00000000       0.00000000       0.00000000
W       15.60570725      73.64962573       3.12607270  T       0.00000000       0.00000000       0.00000000
W       14.30196874      75.90432718       1.26863736  T       0.00000000       0.00000000       0.00000000
W       16.90462729      75.90437191       2.18316173  T       0.00000000       0.00000000       0.00000000
W       19.50724171      75.90441752       3.09704895  T       0.00000000       0.00000000       0.00000000
W       18.20386842      78.15907166       1.23971715  T       0.00000000       0.00000000       0.00000000
W       20.80648446      78.15909785       2.15229128  T       0.00000000       0.00000000       0.00000000
W       15.60122554      78.15903815       3.08764719  T       0.00000000       0.00000000       0.00000000
W       16.90082925      80.41367486       2.14497179  T       0.00000000       0.00000000       0.00000000
W       19.50351464      80.41367303       3.05711088  T       0.00000000       0.00000000       0.00000000
W       18.20084318      82.66818819       1.20197268  T       0.00000000       0.00000000       0.00000000
W       20.80363208      82.66811807       2.11292320  T       0.00000000       0.00000000       0.00000000
W       19.50131226      84.92252679       3.02001440  T       0.00000000       0.00000000       0.00000000
W       20.80225907      87.17664189       2.07666574  T       0.00000000       0.00000000       0.00000000
W       28.65835820      28.55109432      -0.11921731  T       0.00000000       0.00000000       0.00000000
W       24.75533890      30.80879406      -0.15684237  T       0.00000000       0.00000000       0.00000000
W       27.35798585      30.80765412       0.77850612  T       0.00000000       0.00000000       0.00000000
W       26.05733280      33.06392132      -1.08545213  T       0.00000000       0.00000000       0.00000000
W       28.66003725      33.06282606      -0.14968227  T       0.00000000       0.00000000       0.00000000
W       23.45443350      33.06479524       0.74131220  T       0.00000000       0.00000000       0.00000000
W       22.15316006      35.32049851      -1.12201970  T       0.00000000       0.00000000       0.00000000
W       24.75631949      35.31986876      -0.18845324  T       0.00000000       0.00000000       0.00000000
W       27.35930653      35.31905847       0.74634753  T       0.00000000       0.00000000       0.00000000
W       26.05814793      37.57493311      -1.11918177  T       0.00000000       0.00000000       0.00000000
W       28.66124342      37.57419866      -0.18410884  T       0.00000000       0.00000000       0.00000000
W       23.45487711      37.57548926       0.70834744  T       0.00000000       0.00000000       0.00000000
W       22.15295452      39.83079598      -1.15620413  T       0.00000000       0.00000000       0.00000000
W       24.75648947      39.83045142      -0.22361027  T       0.00000000       0.00000000       0.00000000
W       27.35989136      39.82997787       0.71024626  T       0.00000000       0.00000000       0.00000000
W       26.05795827      42.08537256      -1.15678133  T       0.00000000       0.00000000       0.00000000
W       28.67063783      42.09093122      -0.22250179  F       0.00000000      -0.00000000       0.00000004
W       23.45428381      42.08563869       0.67192579  T       0.00000000       0.00000000       0.00000000
W       22.15151421      44.34054015      -1.19370967  T       0.00000000       0.00000000       0.00000000
W       24.75540567      44.34042412      -0.26250909  T       0.00000000       0.00000000       0.00000000
W       27.36891669      44.34528982       0.67028359  F       0.00000000      -0.00000001       0.00000004
W       26.05625810      46.59513986      -1.19842561  T       0.00000000       0.00000000       0.00000000
W       28.66353011      46.59876913      -0.26667131  F      -0.00000000       0.00000000       0.00000009
W       23.45223476      46.59519468       0.63194821  T       0.00000000       0.00000000       0.00000000
W       22.14848719      48.84975797      -1.23452546  T       0.00000000       0.00000000       0.00000000
W       24.75261846      48.84977671      -0.30519823  T       0.00000000       0.00000000       0.00000000
W       27.35874721      48.85090801       0.62527374  F       0.00000001       0.00000001       0.00000008
W       26.05673113      51.10495026      -1.24457006  F       0.00000001       0.00000000       0.00000007
W       28.66000665      51.10471831      -0.31449780  F      -0.00000001      -0.00000001       0.00000015
W       23.44838930      51.10423785       0.58850839  T       0.00000000       0.00000000       0.00000000
W       22.14368479      53.35860749      -1.27840488  T       0.00000000       0.00000000       0.00000000
W       24.75568032      53.35946796      -0.35271360  F      -0.00000000      -0.00000001       0.00000006
W       27.35719223      53.35871658       0.57581305  F       0.00000000      -0.00000001       0.00000013
W       26.05397767      55.61414981      -1.29409359  F       0.00000001       0.00000001       0.00000011
W       28.65638805      55.61371683      -0.36778746  F       0.00000001       0.00000001       0.00000019
W       23.45554548      55.61480724       0.54040486  F      -0.00000000      -0.00000000       0.00000004
W       22.13724636      57.86735516      -1.32475787  T       0.00000000       0.00000000       0.00000000
W       24.74651578      57.86926678      -0.40297499  F       0.00000001       0.00000001       0.00000008
W       27.35000425      57.86852550       0.52188862  F       0.00000001      -0.00000000       0.00000016
W       26.04344091      60.12271357      -1.34720747  F      -0.00000000      -0.00000002       0.00000013
W       28.64663893      60.12221533      -0.42519926  F      -0.00000001      -0.00000002       0.00000021
W       23.44185091      60.12257887       0.49238749  F       0.00000000      -0.00000000       0.00000005
W       22.12973793      62.37627586      -1.37260151  T       0.00000000       0.00000000       0.00000000
W       24.73579488      62.37655160      -0.45365290  F      -0.00000001      -0.00000001       0.00000009
W       27.33949250      62.37634410       0.46632240  F       0.00000001       0.00000001       0.00000017
W       26.03339113      64.63020371       1.36064500  F       0.00000001       0.00000001       0.00000013
W       28.63623387      64.62998764       2.27818200  F       0.00000000      -0.00000001       0.00000021
W       23.43178810      64.63054923       3.20406081  F       0.00000000       0.00000000       0.00000005
W       22.12206577      66.88551181       1.34060892  T       0.00000000       0.00000000       0.00000000
W       24.72754119      66.88433902       2.25629295  F       0.00000000      -0.00000001       0.00000008
W       27.33035277      66.88409780       3.17260203  F      -0.00000001      -0.00000002       0.00000016
W       26.02588693      69.13864819       1.30860641  F      -0.00000000      -0.00000001       0.00000012
W       28.62805690      69.13801334       2.22205324  F       0.00000001       0.00000002       0.00000019
W       23.42652473      69.13875134       3.15482891  F      -0.00000000      -0.00000000       0.00000004
W       22.11519144      71.39498903       1.29366609  T       0.00000000       0.00000000       0.00000000
W       24.72106903      71.39348689       2.20719785  F       0.00000000       0.00000001       0.00000006
W       27.32354273      71.39237151       3.11965539  F       0.00000001       0.00000002       0.00000014
W       26.02010180      73.64586544       1.25780673  F       0.00000000      -0.00000001       0.00000009
W       28.62322182      73.64556822       2.16900092  F      -0.00000002      -0.00000002       0.00000016
W       23.41355933      73.64977109       3.10844392  T       0.00000000       0.00000000       0.00000000
W       22.10981167      75.90446218       1.24892749  T       0.00000000       0.00000000       0.00000000
W       24.72388246      75.89984987       2.16041295  F      -0.00000000      -0.00000000       0.00000004
W       27.32234542      75.89959516       3.07082083  F      -0.00000000      -0.00000000       0.00000011
W       26.02273402      78.15364804       1.21230062  F       0.00000000       0.00000001       0.00000005
W       28.62229596      78.15438917       2.12109515  F       0.00000001       0.00000001       0.00000012
W       23.40908010      78.15911115       3.06397959  T       0.00000000       0.00000000       0.00000000
W       22.10620122      80.41364846       1.20710317  T       0.00000000       0.00000000       0.00000000
W       24.70890401      80.41358963       2.11733979  T       0.00000000       0.00000000       0.00000000
W       27.32256096      80.40754077       3.02547459  F       0.00000000      -0.00000001       0.00000006
W       26.00934830      82.66781807       1.17042817  T       0.00000000       0.00000000       0.00000000
W       28.62309446      82.66133501       2.07719726  F      -0.00000000       0.00000000       0.00000006
W       23.40645910      82.66800124       3.02288128  T       0.00000000       0.00000000       0.00000000
W       22.10426268      84.92234823       1.16853438  T       0.00000000       0.00000000       0.00000000
W       24.70729355      84.92209021       2.07722764  T       0.00000000       0.00000000       0.00000000
W       27.31043672      84.92172362       2.98466689  T       0.00000000       0.00000000       0.00000000
W       26.00870496      87.17585975       1.13154228  T       0.00000000       0.00000000       0.00000000
W       28.61214975      87.17525067       2.03768153  T       0.00000000       0.00000000       0.00000000
W       23.40542029      87.17631061       2.98532582  T       0.00000000       0.00000000       0.00000000
W       22.10368216      89.43049235       1.13329314  T       0.00000000       0.00000000       0.00000000
W       24.70708983      89.42996426       2.04088207  T       0.00000000       0.00000000       0.00000000
W       27.31065941      89.42927212       2.94722534  T       0.00000000       0.00000000       0.00000000
W       26.00922946      91.68328553       1.09658475  T       0.00000000       0.00000000       0.00000000
W       28.61309338      91.68231315       2.00187937  T       0.00000000       0.00000000       0.00000000
W       23.40555669      91.68404936       2.95126308  T       0.00000000       0.00000000       0.00000000
W       24.70783725      93.93730000       2.00814464  T       0.00000000       0.00000000       0.00000000
W       27.31177554      93.93627139       2.91381476  T       0.00000000       0.00000000       0.00000000
W       26.01046255      96.19024910       1.06530314  T       0.00000000       0.00000000       0.00000000
W       28.61464946      96.18894048       1.97015390  T       0.00000000       0.00000000       0.00000000
W       27.31336123      98.44291920       2.88410168  T       0.00000000       0.00000000       0.00000000
W       35.16044417      21.77777576       0.88417507  T       0.00000000       0.00000000       0.00000000
W       33.86050544      24.03508684      -0.97787740  T       0.00000000       0.00000000       0.00000000
W       36.46227904      24.03259903      -0.03821242  T       0.00000000       0.00000000       0.00000000
W       29.95853292      26.29428638      -1.01745861  T       0.00000000       0.00000000       0.00000000
W       32.56057307      26.29232148      -0.07949182  T       0.00000000       0.00000000       0.00000000
W       35.16243423      26.29004708       0.85978618  T       0.00000000       0.00000000       0.00000000
W       33.86258585      28.54739837      -1.00438564  T       0.00000000       0.00000000       0.00000000
W       36.46439082      28.54504837      -0.06418561  T       0.00000000       0.00000000       0.00000000
W       31.26057578      28.54940333       0.81814638  T       0.00000000       0.00000000       0.00000000
W       29.96042848      30.80625914      -1.04613117  T       0.00000000       0.00000000       0.00000000
W       32.56264790      30.80456411      -0.10809938  T       0.00000000       0.00000000       0.00000000
W       35.16463194      30.80252357       0.83146111  T       0.00000000       0.00000000       0.00000000
W       33.86475079      33.05977232      -1.03503155  T       0.00000000       0.00000000       0.00000000
W       36.47445462      33.06780313      -0.09202805  F      -0.00000001      -0.00000001       0.00000004
W       31.26251848      33.06146108       0.78749647  T       0.00000000       0.00000000       0.00000000
W       29.96208686      35.31802096      -1.07873134  T       0.00000000       0.00000000       0.00000000
W       32.56462454      35.31670017      -0.14098983  T       0.00000000       0.00000000       0.00000000
W       35.17114933      35.32139670       0.80103296  F      -0.00000001      -0.00000000       0.00000006
W       33.86898853      37.57535529      -1.06850092  F       0.00000000       0.00000000       0.00000007
W       36.47088574      37.57477778      -0.12683334  F      -0.00000001      -0.00000000       0.00000013
W       31.26412238      37.57323402       0.75248013  T       0.00000000       0.00000000       0.00000000
W       29.96311938      39.82933212      -1.11571721  T       0.00000000       0.00000000       0.00000000
W       32.56768316      39.82988574      -0.17716907  F       0.00000001      -0.00000000       0.00000008
W       35.17003679      39.83005868       0.76341097  F      -0.00000001      -0.00000001       0.00000015
W       33.87063316      42.08554468      -1.10805964  F       0.00000001      -0.00000001       0.00000016
W       36.47263075      42.08505652      -0.16709222  F      -0.00000001      -0.00000000       0.00000023
W       31.26941830      42.08582081       0.71486832  F       0.00000000      -0.00000000       0.00000009
W       29.96947666      44.34402032      -1.15646869  F      -0.00000001      -0.00000001       0.00000010
W       32.57087937      44.34193591      -0.21931558  F       0.00000001       0.00000000       0.00000017
W       35.17249599      44.34107412       0.71970402  F      -0.00000000       0.00000001       0.00000024
W       33.87100041      46.59688795      -1.15582915  F       0.00000001      -0.00000000       0.00000024
W       36.47357415      46.59606312      -0.21638029  F      -0.00000002      -0.00000002       0.00000031
W       31.26810811      46.59817439       0.66824149  F       0.00000001       0.00000000       0.00000017
W       29.96373562      48.85184612      -1.20430963  F      -0.00000000      -0.00000000       0.00000016
W       32.56807647      48.85182456      -0.27008968  F       0.00000001      -0.00000002       0.00000024
W       35.17152297      48.85129468       0.66669476  F      -0.00000001      -0.00000002       0.00000031
W       33.86824562      51.10574616      -1.21103581  F       0.00000002       0.00000000       0.00000031
W       36.47190296      51.10560040      -0.27501021  F       0.00000000       0.00000001       0.00000038
W       31.26433333      51.10562328       0.61673068  F      -0.00000000      -0.00000001       0.00000023
W       29.96051375      53.35924451      -1.25663311  F       0.00000000       0.00000001       0.00000021
W       32.56403482      53.35962765      -0.32637075  F       0.00000003       0.00000002       0.00000029
W       35.16782993      53.35979065       0.60594007  F      -0.00000000      -0.00000001       0.00000037
W       33.86257722      55.61368292      -1.27293730  F      -0.00000000      -0.00000003       0.00000035
W       36.46638316      55.61375323      -0.34230041  F      -0.00000002      -0.00000003       0.00000043
W       31.25911400      55.61359647       0.55958384  F       0.00000001      -0.00000000       0.00000027
W       29.95310087      57.86790175      -1.31449334  F      -0.00000001      -0.00000003       0.00000024
W       32.55632782      57.86762951      -0.38881728  F       0.00000000      -0.00000002       0.00000033
W       35.15985298      57.86755036       0.53794442  F       0.00000001       0.00000002       0.00000040
W       33.85270820      60.12145352      -1.34045094  F       0.00000003       0.00000003       0.00000037
W       36.45600415      60.12134710      -0.41641757  F      -0.00000000      -0.00000001       0.00000045
W       31.24960019      60.12172866       0.49752921  F       0.00000001       0.00000002       0.00000029
W       29.94262094      62.37589594      -1.37486989  F       0.00000002       0.00000002       0.00000025
W       32.54547561      62.37553200      -0.45460085  F       0.00000001      -0.00000001       0.00000033
W       35.14825776      62.37533995       0.46580576  F      -0.00000003      -0.00000005       0.00000042
W       33.84111234      64.62951759       1.35188111  F      -0.00000001      -0.00000003       0.00000037
W       36.44324611      64.62951841       2.26887101  F       0.00000002       0.00000004       0.00000045
W       31.23876848      64.62968296       3.19577476  F      -0.00000002      -0.00000004       0.00000029
W       29.93279625      66.88384543       1.32675604  F      -0.00000001      -0.00000001       0.00000024
W       32.53492760      66.88374705       2.24171288  F       0.00000002       0.00000003       0.00000032
W       35.13670577      66.88386289       3.15595060  F       0.00000003       0.00000004       0.00000040
W       33.83155273      69.13814211       1.28593751  F      -0.00000000      -0.00000002       0.00000035
W       36.43276278      69.13860314       2.19685354  F      -0.00000004      -0.00000007       0.00000043
W       31.22994504      69.13791922       3.13504964  F       0.00000002       0.00000003       0.00000027
W       29.92595118      71.39194404       1.27003671  F      -0.00000000      -0.00000001       0.00000022
W       32.52767806      71.39224711       2.18077987  F      -0.00000002      -0.00000005       0.00000030
W       35.12891993      71.39283196       3.09013419  F      -0.00000001      -0.00000001       0.00000037
W       33.82638622      73.64678551       1.22578237  F       0.00000002       0.00000004       0.00000031
W       36.42740386      73.64765137       2.13226532  F       0.00000003       0.00000004       0.00000038
W       31.22503285      73.64607364       3.07874249  F      -0.00000001      -0.00000001       0.00000024
W       29.92402482      75.89984774       1.21835256  F       0.00000001       0.00000002       0.00000018
W       32.52495096      75.90061213       2.12579747  F       0.00000002       0.00000002       0.00000025
W       35.12608112      75.90143723       3.03156445  F      -0.00000001      -0.00000003       0.00000032
W       33.82529356      78.15512258       1.17231698  F      -0.00000002      -0.00000004       0.00000026
W       36.42668692      78.15584204       2.07576701  F      -0.00000000       0.00000001       0.00000032
W       31.22418560      78.15438642       3.02817339  F      -0.00000000      -0.00000002       0.00000019
W       29.92258284      80.40858266       1.17119395  F      -0.00000001      -0.00000002       0.00000013
W       32.52492633      80.40857236       2.07650784  F      -0.00000000       0.00000001       0.00000019
W       35.12642432      80.40924480       2.97998548  F       0.00000002       0.00000004       0.00000025
W       33.82637523      82.66237893       1.12487204  F       0.00000001       0.00000001       0.00000019
W       36.42833335      82.66292726       2.02658246  F      -0.00000002      -0.00000003       0.00000025
W       31.22359389      82.66239437       2.98252365  F       0.00000001       0.00000002       0.00000012
W       29.92436005      84.91471676       1.12891786  F       0.00000001       0.00000000       0.00000006
W       32.52532443      84.91579341       2.03266038  F      -0.00000001      -0.00000002       0.00000012
W       35.12846404      84.91589021       2.93478480  F      -0.00000002      -0.00000002       0.00000018
W       33.82778385      87.16922094       1.08303458  F       0.00000000       0.00000001       0.00000011
W       36.43005702      87.16984009       1.98429362  F       0.00000001       0.00000002       0.00000016
W       31.22609207      87.16754040       2.94210315  F      -0.00000001      -0.00000001       0.00000006
W       29.91442821      89.42836954       1.09089460  T       0.00000000       0.00000000       0.00000000
W       32.52826390      89.41946255       1.99409755  F       0.00000000       0.00000001       0.00000004
W       35.12820363      89.42413134       2.89627359  F       0.00000001      -0.00000000       0.00000009
W       33.82152671      91.67953284       1.04669485  T       0.00000000       0.00000000       0.00000000
W       36.42919993      91.67548119       1.94700926  F      -0.00000001      -0.00000000       0.00000007
W       31.21718162      91.68108180       2.90572737  T       0.00000000       0.00000000       0.00000000
W       29.91592151      93.93499487       1.05690240  T       0.00000000       0.00000000       0.00000000
W       32.52029988      93.93342097       1.95980025  T       0.00000000       0.00000000       0.00000000
W       35.12493012      93.93149700       2.86109767  T       0.00000000       0.00000000       0.00000000
W       33.82366608      96.18544853       1.01452289  T       0.00000000       0.00000000       0.00000000
W       36.42851319      96.18318239       1.91507283  T       0.00000000       0.00000000       0.00000000
W       31.21904622      96.18735459       2.87368844  T       0.00000000       0.00000000       0.00000000
W       29.91776534      98.44133135       1.02697688  T       0.00000000       0.00000000       0.00000000
W       32.52236748      98.43945072       1.92982662  T       0.00000000       0.00000000       0.00000000
W       35.12716823      98.43724607       2.83129164  T       0.00000000       0.00000000       0.00000000
W       33.82579152     100.69135610       0.98669123  T       0.00000000       0.00000000       0.00000000
W       36.43070844     100.68890551       1.88768674  T       0.00000000       0.00000000       0.00000000
W       31.22103755     100.69349848       2.84565109  T       0.00000000       0.00000000       0.00000000
W       32.52438711     102.94550669       1.90373600  T       0.00000000       0.00000000       0.00000000
W       35.12923721     102.94315025       2.80564024  T       0.00000000       0.00000000       0.00000000
W       36.43263989     105.19491175       1.86421487  T       0.00000000       0.00000000       0.00000000
W       42.96418152      17.25765404       0.96388654  T       0.00000000       0.00000000       0.00000000
W       41.66393763      19.51486990      -0.89617441  T       0.00000000       0.00000000       0.00000000
W       44.26568635      19.51189753       0.04582992  T       0.00000000       0.00000000       0.00000000
W       39.06220355      19.51774514       0.92407267  T       0.00000000       0.00000000       0.00000000
W       37.76218671      21.77513981      -0.93718929  T       0.00000000       0.00000000       0.00000000
W       40.36386092      21.77227996       0.00385800  T       0.00000000       0.00000000       0.00000000
W       42.96550771      21.76924414       0.94603785  T       0.00000000       0.00000000       0.00000000
W       41.66551645      24.02681127      -0.91633176  T       0.00000000       0.00000000       0.00000000
W       44.26706610      24.02359612       0.02714770  T       0.00000000       0.00000000       0.00000000
W       39.06393683      24.02983100       0.90272019  T       0.00000000       0.00000000       0.00000000
W       37.76413213      26.28745041      -0.96082453  T       0.00000000       0.00000000       0.00000000
W       40.36569604      26.28453687      -0.01874619  T       0.00000000       0.00000000       0.00000000
W       42.96716982      26.28133840       0.92477384  T       0.00000000       0.00000000       0.00000000
W       41.66746604      28.53926009      -0.94034338  T       0.00000000       0.00000000       0.00000000
W       44.27060500      28.53945040       0.00654756  F       0.00000000      -0.00000001       0.00000005
W       39.06600662      28.54233463       0.87756379  T       0.00000000       0.00000000       0.00000000
W       37.76637964      30.80009702      -0.98859488  T       0.00000000       0.00000000       0.00000000
W       40.37156943      30.80218580      -0.04360795  F       0.00000000      -0.00000000       0.00000005
W       42.97053413      30.79575482       0.90304277  F      -0.00000001      -0.00000000       0.00000009
W       41.67223216      33.05501308      -0.96447401  F      -0.00000001       0.00000000       0.00000013