1304
Lattice="121.24753676820629 0.0 0.0 0.0 114.86608746461648 0.0 0.0 0.0 3.1907246517949024" Properties=species:S:1:pos:R:3:fix_mask:L:1:forces:R:3 energy=-16618.98481149092 pbc="T T T"
W       15.33212046      48.08276447       1.59536233  T       0.00000000       0.00000000       0.00000000
W       15.27381830      51.26754507       1.59536233  T       0.00000000       0.00000000       0.00000000
W       15.21335823      54.45453226       1.59536233  T       0.00000000       0.00000000       0.00000000
W       18.34207121      57.65467282       1.59536233  T       0.00000000       0.00000000       0.00000000
W       18.27635770      60.84681051       1.59536233  T       0.00000000       0.00000000       0.00000000
W       18.21236373      64.04169276       1.59536233  T       0.00000000       0.00000000       0.00000000
W       18.69595819      38.55298034       1.59536233  T       0.00000000       0.00000000       0.00000000
W       18.64695535      41.73258849       1.59536233  T       0.00000000       0.00000000       0.00000000
W       17.01686107      43.31563195       0.00000000  T       0.00000000       0.00000000       0.00000000
W       18.59309822      44.91307988       1.59536233  T       0.00000000       0.00000000       0.00000000
W       16.96209865      46.49731920       0.00000000  T       0.00000000       0.00000000       0.00000000
W       18.53477296      48.09502344       1.59536233  T       0.00000000       0.00000000       0.00000000
W       16.90356034      49.68068663       0.00000000  T       0.00000000       0.00000000       0.00000000
W       18.47271938      51.27898027       1.59536233  T       0.00000000       0.00000000       0.00000000
W       16.84210347      52.86620138       0.00000000  T       0.00000000       0.00000000       0.00000000
W       18.40802866      54.46542619       1.59536233  T       0.00000000       0.00000000       0.00000000
W       16.77886186      56.05421582       0.00000000  T       0.00000000       0.00000000       0.00000000
W       21.53217636      57.66619258       1.59536233  T       0.00000000       0.00000000       0.00000000
W       19.90291376      59.25606453       0.00000000  T       0.00000000       0.00000000       0.00000000
W       21.46136737      60.85857074       1.59536233  T       0.00000000       0.00000000       0.00000000
W       19.83551225      62.44982427       0.00000000  T       0.00000000       0.00000000       0.00000000
W       21.39271033      64.05411097       1.59536233  T       0.00000000       0.00000000       0.00000000
W       19.77077307      65.64634892       0.00000000  T       0.00000000       0.00000000       0.00000000
W       21.32775671      67.25234459       1.59536233  T       0.00000000       0.00000000       0.00000000
W       19.70992743      68.84514442       0.00000000  T       0.00000000       0.00000000       0.00000000
W       21.26761967      70.45263272       1.59536233  T       0.00000000       0.00000000       0.00000000
W       19.65380523      72.04561007       0.00000000  T       0.00000000       0.00000000       0.00000000
W       21.21293399      73.65428023       1.59536233  T       0.00000000       0.00000000       0.00000000
W       21.99224740      32.21302639       1.59536233  T       0.00000000       0.00000000       0.00000000
W       21.95272083      35.39163130       1.59536233  T       0.00000000       0.00000000       0.00000000
W       20.32452188      36.97184393       0.00000000  T       0.00000000       0.00000000       0.00000000
W       21.90779267      38.56993517       1.59536233  T       0.00000000       0.00000000       0.00000000
W       20.27736305      40.15069858       0.00000000  T       0.00000000       0.00000000       0.00000000
W       21.85717204      41.74841793       1.59536233  T       0.00000000       0.00000000       0.00000000
W       20.22488410      43.33010380       0.00000000  T       0.00000000       0.00000000       0.00000000
W       21.80083074      44.92768724       1.59536233  T       0.00000000       0.00000000       0.00000000
W       20.16727720      46.51066177       0.00000000  T       0.00000000       0.00000000       0.00000000
W       21.73911660      48.10844176       1.59536233  T       0.00000000       0.00000000       0.00000000
W       20.10511147      49.69301410       0.00000000  T       0.00000000       0.00000000       0.00000000
W       21.67284113      51.29139640       1.59536233  T       0.00000000       0.00000000       0.00000000
W       20.03937329      52.87776117       0.00000000  T       0.00000000       0.00000000       0.00000000
W       21.60329798      54.47717473       1.59536233  T       0.00000000       0.00000000       0.00000000
W       19.97143157      56.06536542       0.00000000  T       0.00000000       0.00000000       0.00000000
W       24.72215255      57.67865651       1.59536233  T       0.00000000       0.00000000       0.00000000
W       23.09017254      59.26810894       0.00000000  T       0.00000000       0.00000000       0.00000000
W       24.64539854      60.87134051       1.59536233  T       0.00000000       0.00000000       0.00000000
W       23.01747904      62.46238462       0.00000000  T       0.00000000       0.00000000       0.00000000
W       24.57138469      64.06770334       1.59536233  T       0.00000000       0.00000000       0.00000000
W       22.94812468      65.65982636       0.00000000  T       0.00000000       0.00000000       0.00000000
W       24.50201696      67.26710857       1.59536233  T       0.00000000       0.00000000       0.00000000
W       22.88357842      68.85977813       0.00000000  T       0.00000000       0.00000000       0.00000000
W       24.43857449      70.46871390       1.59536233  T       0.00000000       0.00000000       0.00000000
W       22.82475244      72.06146660       0.00000000  T       0.00000000       0.00000000       0.00000000
W       24.38168461      73.67163821       1.59536233  T       0.00000000       0.00000000       0.00000000
W       22.77202793      75.26412873       0.00000000  T       0.00000000       0.00000000       0.00000000
W       24.33142818      76.87508827       1.59536233  T       0.00000000       0.00000000       0.00000000
W       22.72536261      78.46709950       0.00000000  T       0.00000000       0.00000000       0.00000000
W       24.28750062      80.07842679       1.59536233  T       0.00000000       0.00000000       0.00000000
W       25.24095059      29.05460178       1.59536233  T       0.00000000       0.00000000       0.00000000
W       23.61714873      30.63360268       0.00000000  T       0.00000000       0.00000000       0.00000000
W       25.20691878      32.23351958       1.59536233  T       0.00000000       0.00000000       0.00000000
W       23.58027720      33.81223688       0.00000000  T       0.00000000       0.00000000       0.00000000
W       25.16745109      35.41147848       1.59536233  T       0.00000000       0.00000000       0.00000000
W       23.53793028      36.99023167       0.00000000  T       0.00000000       0.00000000       0.00000000
W       25.12190939      38.58882216       1.59536233  T       0.00000000       0.00000000       0.00000000
W       23.48963425      40.16801029       0.00000000  T       0.00000000       0.00000000       0.00000000
W       25.06980044      41.76607132       1.59536233  T       0.00000000       0.00000000       0.00000000
W       23.43512716      43.34615368       0.00000000  T       0.00000000       0.00000000       0.00000000
W       25.01092016      44.94393201       1.59536233  T       0.00000000       0.00000000       0.00000000
W       23.37449391      46.52538453       0.00000000  T       0.00000000       0.00000000       0.00000000
W       24.94552351      48.12326291       1.59536233  T       0.00000000       0.00000000       0.00000000
W       23.30829970      49.70650862       0.00000000  T       0.00000000       0.00000000       0.00000000
W       24.88175629      51.30483599       1.59536233  F      -0.00088525      -0.00036402       0.00000000
W       23.23767332      52.89030793       0.00000000  T       0.00000000       0.00000000       0.00000000
W       24.79936477      54.49062332       1.59536233  F      -0.00133051      -0.00011672      -0.00000000
W       23.16428319      56.07740069       0.00000000  T       0.00000000       0.00000000       0.00000000
W       27.91199406      57.68771580       1.59536233  F      -0.00001952       0.00006326       0.00000000
W       26.27679125      59.28119797       0.00000000  T       0.00000000       0.00000000       0.00000000
W       27.82986678      60.88192236       1.59536233  F       0.00052174       0.00039956      -0.00000000
W       26.19792902      62.47613004       0.00000000  T       0.00000000       0.00000000       0.00000000
W       27.74796340      64.08272238       1.59536233  T       0.00000000       0.00000000       0.00000000
W       26.12332734      65.67471384       0.00000000  T       0.00000000       0.00000000       0.00000000
W       27.67367027      67.28357342       1.59536233  T       0.00000000       0.00000000       0.00000000
W       26.05474301      68.87606219       0.00000000  T       0.00000000       0.00000000       0.00000000
W       27.60675010      70.48674044       1.59536233  T       0.00000000       0.00000000       0.00000000
W       25.99314788      72.07916908       0.00000000  T       0.00000000       0.00000000       0.00000000
W       27.54775525      73.69110127       1.59536233  T       0.00000000       0.00000000       0.00000000
W       25.93881111      75.28308921       0.00000000  T       0.00000000       0.00000000       0.00000000
W       27.49654627      76.89570480       1.59536233  T       0.00000000       0.00000000       0.00000000
W       25.89148601      78.48704546       0.00000000  T       0.00000000       0.00000000       0.00000000
W       27.45254731      80.09984013       1.59536233  T       0.00000000       0.00000000       0.00000000
W       25.85061169      81.69046576       0.00000000  T       0.00000000       0.00000000       0.00000000
W       27.41496665      83.30303471       1.59536233  T       0.00000000       0.00000000       0.00000000
W       28.48451779      25.89713611       1.59536233  T       0.00000000       0.00000000       0.00000000
W       26.86346087      27.47584504       0.00000000  T       0.00000000       0.00000000       0.00000000
W       28.45646232      29.07738917       1.59536233  T       0.00000000       0.00000000       0.00000000
W       26.83239000      30.65530490       0.00000000  T       0.00000000       0.00000000       0.00000000
W       28.42337106      32.25616614       1.59536233  T       0.00000000       0.00000000       0.00000000
W       26.79603304      33.83352195       0.00000000  T       0.00000000       0.00000000       0.00000000
W       28.38437246      35.43360504       1.59536233  T       0.00000000       0.00000000       0.00000000
W       26.75361657      37.01074246       0.00000000  T       0.00000000       0.00000000       0.00000000
W       28.33858431      38.61001824       1.59536233  T       0.00000000       0.00000000       0.00000000
W       26.70443543      40.18739562       0.00000000  T       0.00000000       0.00000000       0.00000000
W       28.29055917      41.78967165       1.59536233  F      -0.00088777      -0.00028093       0.00000000
W       26.64799136      43.36412641       0.00000000  T       0.00000000       0.00000000       0.00000000
W       28.22791307      44.96420324       1.59536233  F      -0.00144586      -0.00079552       0.00000000
W       26.58875508      46.54379988      -0.00000000  F      -0.00108873      -0.00030905       0.00000000
W       28.15884505      48.13943210       1.59536233  F      -0.00169477      -0.00014483       0.00000000
W       26.51857961      49.72050167       0.00000000  F      -0.00135648       0.00014331      -0.00000000
W       28.08260881      51.31706354       1.59536233  F      -0.00059392       0.00078041       0.00000000
W       26.44139831      52.90195026       0.00000000  F      -0.00157393      -0.00006045      -0.00000000
W       27.99770263      54.49957410       1.59536233  F      -0.00060880       0.00048171       0.00000000
W       26.35869708      56.08742774      -0.00000000  F      -0.00158817      -0.00035152       0.00000000
W       31.09766262      57.70200726       1.59536233  F       0.00065154       0.00183328       0.00000000
W       29.46080485      59.29045385      -0.00000000  F       0.00032711       0.00071271      -0.00000000
W       31.00517746      60.89642674       1.59536233  F      -0.00009298       0.00120805      -0.00000000
W       29.37515343      62.48770425       0.00000000  F       0.00113771       0.00070688      -0.00000000
W       30.91836074      64.09615839       1.59536233  F       0.00039934       0.00081150       0.00000000
W       29.29653761      65.68850432       0.00000000  F       0.00079082      -0.00001649       0.00000000
W       30.84153397      67.29900948       1.59536233  F       0.00061900       0.00038056       0.00000000
W       29.22668245      68.89140683       0.00000000  F       0.00017009       0.00049958       0.00000000
W       30.77287815      70.50469354       1.59536233  F       0.00045320       0.00010764      -0.00000000
W       29.15856431      72.09912721       0.00000000  T       0.00000000       0.00000000       0.00000000
W       30.71076726      73.71312190       1.59536233  T       0.00000000       0.00000000       0.00000000
W       29.10288699      75.30439894       0.00000000  T       0.00000000       0.00000000       0.00000000
W       30.65904185      76.91887627       1.59536233  T       0.00000000       0.00000000       0.00000000
W       29.05530407      78.50931139       0.00000000  T       0.00000000       0.00000000       0.00000000
W       30.61547689      80.12367863       1.59536233  T       0.00000000       0.00000000       0.00000000
W       29.01493669      81.71326773       0.00000000  T       0.00000000       0.00000000       0.00000000
W       30.57894246      83.32708524       1.59536233  T       0.00000000       0.00000000       0.00000000
W       28.98080503      84.91592197       0.00000000  T       0.00000000       0.00000000       0.00000000
W       30.54832576      86.52889305       1.59536233  T       0.00000000       0.00000000       0.00000000
W       31.72180493      22.73902755       1.59536233  T       0.00000000       0.00000000       0.00000000
W       30.10399504      24.31826740       0.00000000  T       0.00000000       0.00000000       0.00000000
W       31.69968286      25.92153457       1.59536233  T       0.00000000       0.00000000       0.00000000
W       30.07894318      27.49954601       0.00000000  T       0.00000000       0.00000000       0.00000000
W       31.67326127      29.10229432       1.59536233  T       0.00000000       0.00000000       0.00000000
W       30.04919092      30.67917782       0.00000000  T       0.00000000       0.00000000       0.00000000
W       31.64159706      32.28122881       1.59536233  T       0.00000000       0.00000000       0.00000000
W       30.01381002      33.85718993       0.00000000  T       0.00000000       0.00000000       0.00000000
W       31.60360173      35.45837945       1.59536233  T       0.00000000       0.00000000       0.00000000
W       29.97178818      37.03376173       0.00000000  T       0.00000000       0.00000000       0.00000000
W       31.56192447      38.63667856       1.59536233  F      -0.00187110      -0.00150418       0.00000000
W       29.92665255      40.21264097       0.00000000  F      -0.00141822      -0.00106854      -0.00000000
W       31.50957760      41.81052849       1.59536233  F      -0.00148619      -0.00076968       0.00000000
W       29.86889205      43.38691247       0.00000000  F      -0.00167634      -0.00108107      -0.00000000
W       31.44538335      44.98277436       1.59536233  F       0.00013423      -0.00012094       0.00000000
W       29.80165678      46.55981690      -0.00000000  F      -0.00126238      -0.00031606      -0.00000000
W       31.37081648      48.15587628       1.59536233  F       0.00092051       0.00138812      -0.00000000
W       29.72529158      49.73519223       0.00000000  F       0.00027365       0.00130191      -0.00000000
W       31.28613622      51.33249037       1.59536233  F       0.00171483       0.00189148       0.00000000
W       29.64027632      52.91482353       0.00000000  F       0.00105285       0.00151649      -0.00000000
W       31.19313374      54.51422325       1.59536233  F       0.00146738       0.00224555      -0.00000000
W       29.54992992      56.09970026      -0.00000000  F       0.00067997       0.00171098      -0.00000000
W       34.28216111      57.71969680       1.59536233  F      -0.00101320       0.00115300      -0.00000000
W       32.64037632      59.30709046      -0.00000000  F      -0.00097237       0.00183090       0.00000000
W       34.17820002      60.91547730       1.59536233  F      -0.00126217       0.00101276       0.00000000
W       32.54552698      62.50525732      -0.00000000  F      -0.00102409       0.00087177      -0.00000000
W       34.08307892      64.11749745       1.59536233  F      -0.00115989       0.00092437      -0.00000000
W       32.46008071      65.70792277       0.00000000  F      -0.00057299       0.00114178      -0.00000000
W       34.00012853      67.32326396       1.59536233  F      -0.00150843       0.00108287      -0.00000000
W       32.38563214      68.91339010      -0.00000000  F      -0.00011984       0.00040355      -0.00000000
W       33.92920465      70.53034384       1.59536233  F      -0.00006946       0.00027479       0.00000000
W       32.32026930      72.11956727       0.00000000  F       0.00095851       0.00008207       0.00000000
W       33.87097757      73.73576297       1.59536233  F       0.00066966       0.00024957      -0.00000000
W       32.26912020      75.32486891      -0.00000000  F       0.00071947      -0.00044461       0.00000000
W       33.82396309      76.94148668       1.59536233  F       0.00101212      -0.00091075      -0.00000000
W       32.21669856      78.53427408       0.00000000  T       0.00000000       0.00000000       0.00000000
W       33.77628789      80.15026729       1.59536233  T       0.00000000       0.00000000       0.00000000
W       32.17741525      81.73852611       0.00000000  T       0.00000000       0.00000000       0.00000000
W       33.74141038      83.35353457       1.59536233  T       0.00000000       0.00000000       0.00000000
W       32.14480404      84.94102002       0.00000000  T       0.00000000       0.00000000       0.00000000
W       33.71270281      86.55478132       1.59536233  T       0.00000000       0.00000000       0.00000000
W       32.11768047      88.14169957       0.00000000  T       0.00000000       0.00000000       0.00000000
W       33.68896969      89.75408936       1.59536233  T       0.00000000       0.00000000       0.00000000
W       34.95226960      19.57861757       1.59536233  T       0.00000000       0.00000000       0.00000000
W       33.33789950      21.15920935       0.00000000  T       0.00000000       0.00000000       0.00000000
W       34.93557673      22.76402876       1.59536233  T       0.00000000       0.00000000       0.00000000
W       33.31857874      24.34310902       0.00000000  T       0.00000000       0.00000000       0.00000000
W       34.91549484      25.94770887       1.59536233  T       0.00000000       0.00000000       0.00000000
W       33.29540296      27.52523407       0.00000000  T       0.00000000       0.00000000       0.00000000
W       34.89116053      29.12941600       1.59536233  T       0.00000000       0.00000000       0.00000000
W       33.26745277      30.70541483       0.00000000  T       0.00000000       0.00000000       0.00000000
W       34.86672852      32.31429821       1.59536233  F      -0.00036850      -0.00085369       0.00000000
W       33.23361846      33.88356147       0.00000000  T       0.00000000       0.00000000       0.00000000
W       34.82877829      35.48983076       1.59536233  F      -0.00261630      -0.00254037       0.00000000
W       33.19597252      37.06209444       0.00000000  F      -0.00197386      -0.00251471      -0.00000000
W       34.78552752      38.66332356       1.59536233  F      -0.00090373      -0.00056725      -0.00000000
W       33.14823706      40.23583474       0.00000000  F      -0.00114410      -0.00062311      -0.00000000
W       34.73229484      41.83511275       1.59536233  F       0.00094035       0.00096821       0.00000000
W       33.08926440      43.40779185      -0.00000000  F       0.00053106       0.00062923       0.00000000
W       34.66649923      45.00583655       1.59536233  F       0.00087012       0.00107292      -0.00000000
W       33.01839486      46.57944962      -0.00000000  F       0.00095066       0.00113902       0.00000000
W       34.58703840      48.17713069       1.59536233  F      -0.00036071       0.00095748      -0.00000000
W       32.93528573      49.75314961      -0.00000000  F       0.00069748       0.00137462       0.00000000
W       34.49370121      51.35155110       1.59536233  F      -0.00076816       0.00060821       0.00000000
W       32.84117879      52.93125709      -0.00000000  F       0.00040311       0.00154603       0.00000000
W       34.38979808      54.53178947       1.59536233  F      -0.00023703       0.00118373      -0.00000000
W       32.74069186      56.11560575      -0.00000000  F      -0.00055420       0.00189217       0.00000000
W       37.46469422      57.74091387       1.59536233  F       0.00305798       0.00109246      -0.00000000
W       35.81741260      59.32714956       0.00000000  F       0.00081434       0.00123654      -0.00000000
W       37.34704814      60.93874835       1.59536233  F       0.00016335      -0.00082994       0.00000000
W       35.71170559      62.52765178      -0.00000000  F      -0.00060537      -0.00001150      -0.00000000
W       37.24211235      64.14398026       1.59536233  F       0.00074288      -0.00063042       0.00000000
W       35.61868470      65.73346149       0.00000000  F      -0.00101131       0.00014585       0.00000000
W       37.15346620      67.35296720       1.59536233  F      -0.00071199      -0.00048055       0.00000000
W       35.53997824      68.94154088       0.00000000  F      -0.00148232       0.00077300      -0.00000000
W       37.08099775      70.56222317       1.59536233  F      -0.00068064       0.00043615       0.00000000
W       35.47504161      72.14894228      -0.00000000  F      -0.00055813       0.00060140      -0.00000000
W       37.02343826      73.76940098       1.59536233  F      -0.00104991       0.00125549      -0.00000000
W       35.42396894      75.35430262      -0.00000000  F      -0.00001967       0.00081215       0.00000000
W       36.97846087      76.97395086       1.59536233  F      -0.00037533       0.00067274       0.00000000
W       35.38073487      78.55909420       0.00000000  F       0.00164272      -0.00076076      -0.00000000
W       36.94046467      80.17689290       1.59536233  F       0.00218895      -0.00106277       0.00000000
W       35.33816834      81.76647903       0.00000000  T       0.00000000       0.00000000       0.00000000
W       36.90260815      83.38250004       1.59536233  T       0.00000000       0.00000000       0.00000000
W       35.30768155      84.96836066       0.00000000  T       0.00000000       0.00000000       0.00000000
W       36.87636899      86.58265423       1.59536233  T       0.00000000       0.00000000       0.00000000
W       35.28275698      88.16807328       0.00000000  T       0.00000000       0.00000000       0.00000000
W       36.85502069      89.78060872       1.59536233  T       0.00000000       0.00000000       0.00000000
W       35.26224222      91.36581692       0.00000000  T       0.00000000       0.00000000       0.00000000
W       36.83749724      92.97665370       1.59536233  T       0.00000000       0.00000000       0.00000000
W       38.16389533      19.60302715       1.59536233  T       0.00000000       0.00000000       0.00000000
W       36.55067002      21.18406843       0.00000000  T       0.00000000       0.00000000       0.00000000
W       38.14934254      22.79015704       1.59536233  T       0.00000000       0.00000000       0.00000000
W       36.53347571      24.36943715       0.00000000  T       0.00000000       0.00000000       0.00000000
W       38.13162951      25.97550881       1.59536233  T       0.00000000       0.00000000       0.00000000
W       36.51257594      27.55289144       0.00000000  T       0.00000000       0.00000000       0.00000000
W       38.10984985      29.15873361       1.59536233  T       0.00000000       0.00000000       0.00000000
W       36.48696202      30.73413968       0.00000000  T       0.00000000       0.00000000       0.00000000
W       38.08726186      32.34260980       1.59536233  F      -0.00259729      -0.00375641       0.00000000
W       36.46052309      33.91735198      -0.00000000  F      -0.00264482      -0.00309190      -0.00000000
W       38.05428311      35.52118713       1.59536233  F      -0.00031371      -0.00018571      -0.00000000
W       36.42102659      37.09205650      -0.00000000  F      -0.00027565      -0.00074419       0.00000000
W       38.01255301      38.69512185       1.59536233  F       0.00090511       0.00131677      -0.00000000
W       36.37354579      40.26437935      -0.00000000  F       0.00098052       0.00112349      -0.00000000
W       37.96002889      41.86623863       1.59536233  F      -0.00076062       0.00031984       0.00000000
W       36.31406399      43.43487278       0.00000000  F      -0.00001686       0.00067852      -0.00000000
W       37.89290523      45.03517393       1.59536233  F      -0.00104429       0.00039426       0.00000000
W       36.24006055      46.60452303      -0.00000000  F      -0.00092434       0.00062148       0.00000000
W       37.80840717      48.20364519       1.59536233  F      -0.00015905       0.00077270      -0.00000000
W       36.14992115      49.77557112      -0.00000000  F      -0.00120688       0.00056198      -0.00000000
W       37.70536297      51.37489951       1.59536233  F       0.00185318       0.00146813       0.00000000
W       36.04486252      52.95127679       0.00000000  F       0.00049795       0.00122804      -0.00000000
W       37.58769660      54.55310317       1.59536233  F       0.00172893      -0.00064424       0.00000000
W       35.93111900      56.13474011      -0.00000000  F       0.00009611       0.00038985       0.00000000
W       40.64518650      57.76618457       1.59536233  F      -0.00061812      -0.00326598       0.00000000
W       38.99087615      59.35136772      -0.00000000  F       0.00048935      -0.00259399      -0.00000000
W       40.51006405      60.96666333       1.59536233  F       0.00231604      -0.00062853       0.00000000
W       38.87190318      62.55494012      -0.00000000  F       0.00211420      -0.00060008       0.00000000
W       40.39391789      64.17617025       1.59536233  F      -0.00012315      -0.00248198      -0.00000000
W       38.77100201      65.76455567      -0.00000000  F       0.00023246      -0.00208120       0.00000000
W       40.30009113      67.38904960       1.59536233  F       0.00127611      -0.00211530      -0.00000000
W       38.68918292      68.97562507      -0.00000000  F      -0.00031881      -0.00096909      -0.00000000
W       40.22741116      70.60078327       1.59536233  F      -0.00074650      -0.00152160       0.00000000
W       38.62473203      72.18497524       0.00000000  F      -0.00068563      -0.00024182      -0.00000000
W       40.17186043      73.80896921       1.59536233  F      -0.00002985      -0.00084372       0.00000000
W       38.57479866      75.39106678       0.00000000  F      -0.00086023       0.00083554      -0.00000000
W       40.12957080      77.01284531       1.59536233  F      -0.00050315       0.00108651       0.00000000
W       38.53595697      78.59367034       0.00000000  F      -0.00046807       0.00088667      -0.00000000
W       40.09688069      80.21279328       1.59536233  F      -0.00037346       0.00104099       0.00000000
W       38.50327441      81.79431406      -0.00000000  F       0.00176878      -0.00169630       0.00000000
W       40.06916913      83.41069702       1.59536233  F       0.00156677      -0.00139796      -0.00000000
W       38.46977532      84.99791173       0.00000000  T       0.00000000       0.00000000       0.00000000
W       40.03973608      86.61231066       1.59536233  T       0.00000000       0.00000000       0.00000000
W       38.44753270      88.19607649       0.00000000  T       0.00000000       0.00000000       0.00000000
W       40.02115682      89.80831740       1.59536233  T       0.00000000       0.00000000       0.00000000
W       38.42948709      91.39212237       0.00000000  T       0.00000000       0.00000000       0.00000000
W       40.00609471      93.00238256       1.59536233  T       0.00000000       0.00000000       0.00000000
W       38.41468902      94.58639719       0.00000000  T       0.00000000       0.00000000       0.00000000
W       39.99373351      96.19487839       1.59536233  T       0.00000000       0.00000000       0.00000000
W       41.38507076      16.43706443       1.59536233  T       0.00000000       0.00000000       0.00000000
W       39.77532719      18.02073617       0.00000000  T       0.00000000       0.00000000       0.00000000
W       41.37497935      19.62769164       1.59536233  T       0.00000000       0.00000000       0.00000000
W       39.76314534      21.20963825       0.00000000  T       0.00000000       0.00000000       0.00000000
W       41.36272791      22.81698461       1.59536233  T       0.00000000       0.00000000       0.00000000