503
Lattice="93.78776767593584 0.0 0.0 0.0 81.22258937159344 0.0 0.0 0.0 2.7632486048334464" Properties=species:S:1:pos:R:3:fix_mask:L:1:forces:R:3 energy=-6364.359141153598 pbc="T T T"
W       20.83325795      28.57859068      -0.27798384  T       0.00000000       0.00000000       0.00000000
W       19.53176978      30.83456578       0.60542552  T       0.00000000       0.00000000       0.00000000
W       18.23063467      33.09067200      -1.27321377  T       0.00000000       0.00000000       0.00000000
W       20.83541749      33.09068409      -0.34225056  T       0.00000000       0.00000000       0.00000000
W       19.53460754      35.34684466       0.54066053  T       0.00000000       0.00000000       0.00000000
W       18.23394509      37.60303944      -1.33748672  T       0.00000000       0.00000000       0.00000000
W       20.83892523      37.60303766      -0.41221621  T       0.00000000       0.00000000       0.00000000
W       16.93327787      39.85923292      -0.44993337  T       0.00000000       0.00000000       0.00000000
W       19.53843676      39.85923278       0.47211721  T       0.00000000       0.00000000       0.00000000
W       18.23780988      42.11541354       1.35949572  T       0.00000000       0.00000000       0.00000000
W       20.84314872      42.11541294       2.27846596  T       0.00000000       0.00000000       0.00000000
W       19.54243143      44.37158293       3.16622871  T       0.00000000       0.00000000       0.00000000
W       18.24138879      46.62775992       1.29421945  T       0.00000000       0.00000000       0.00000000
W       20.84700059      46.62776193       2.20719549  T       0.00000000       0.00000000       0.00000000
W       19.54566363      48.88397471       3.09985934  T       0.00000000       0.00000000       0.00000000
W       20.84963631      51.14028783       2.14071563  T       0.00000000       0.00000000       0.00000000
W       26.04353629      19.55708462      -1.04708377  T       0.00000000       0.00000000       0.00000000
W       28.64933224      19.55815619      -0.09846080  T       0.00000000       0.00000000       0.00000000
W       24.74038449      21.81206107      -0.16307226  T       0.00000000       0.00000000       0.00000000
W       27.34594673      21.81286702       0.78359656  T       0.00000000       0.00000000       0.00000000
W       26.04286789      24.06783900      -1.09912254  T       0.00000000       0.00000000       0.00000000
W       28.64835588      24.06860663      -0.15118659  T       0.00000000       0.00000000       0.00000000
W       23.43757103      24.06729848       0.71995966  T       0.00000000       0.00000000       0.00000000
W       22.13518310      26.32281621      -1.16070094  T       0.00000000       0.00000000       0.00000000
W       24.74022991      26.32313068      -0.21950186  T       0.00000000       0.00000000       0.00000000
W       27.34540591      26.32359986       0.72524503  T       0.00000000       0.00000000       0.00000000
W       26.04303109      28.57898031      -1.16230070  T       0.00000000       0.00000000       0.00000000
W       28.64805023      28.57935783      -0.21727928  T       0.00000000       0.00000000       0.00000000
W       23.43811861      28.57874267       0.65991555  T       0.00000000       0.00000000       0.00000000
W       22.13654066      30.83462177      -1.22339228  T       0.00000000       0.00000000       0.00000000
W       24.74129695      30.83471417      -0.28639114  T       0.00000000       0.00000000       0.00000000
W       27.34606395      30.83486976       0.65394596  T       0.00000000       0.00000000       0.00000000
W       26.04482881      33.09074837      -1.23719162  T       0.00000000       0.00000000       0.00000000
W       28.65705224      33.09382639      -0.29707402  F       0.00000008      -0.00000001       0.00000013
W       23.44014908      33.09070660       0.59063909  T       0.00000000       0.00000000       0.00000000
W       22.13942864      35.34684486      -1.29366728  T       0.00000000       0.00000000       0.00000000
W       24.74418250      35.34684771      -0.36307102  T       0.00000000       0.00000000       0.00000000
W       27.34885477      35.34685641       0.56979090  T       0.00000000       0.00000000       0.00000000
W       26.04873154      37.60303302      -1.32199104  T       0.00000000       0.00000000       0.00000000
W       28.65788632      37.60298064      -0.39199435  F       0.00000056      -0.00000029      -0.00000016
W       23.44385893      37.60303552       0.51392998  T       0.00000000       0.00000000       0.00000000
W       22.14358425      39.85923260      -1.36888611  T       0.00000000       0.00000000       0.00000000
W       24.74871651      39.85923234      -0.44638062  T       0.00000000       0.00000000       0.00000000
W       27.36141497      39.85908308       0.47758633  F       0.00000039       0.00000015      -0.00000012
W       26.05391224      42.11541108       1.35165928  T       0.00000000       0.00000000       0.00000000
W       28.66538153      42.11417198       2.26831381  F      -0.00000035      -0.00000054      -0.00000020
W       23.44851321      42.11541214       3.19698957  T       0.00000000       0.00000000       0.00000000
W       22.14795773      44.37158078       1.31835611  T       0.00000000       0.00000000       0.00000000
W       24.75354514      44.37157863       2.23248319  T       0.00000000       0.00000000       0.00000000
W       27.36563566      44.36919860       3.14481876  F      -0.00000036       0.00000015      -0.00000008
W       26.05841554      46.62778109       1.26447693  T       0.00000000       0.00000000       0.00000000
W       28.67270907      46.62470066       2.16916517  F      -0.00000001      -0.00000022      -0.00000009
W       23.45267278      46.62776770       3.11854219  T       0.00000000       0.00000000       0.00000000
W       22.15134174      48.88400159       1.24599698  T       0.00000000       0.00000000       0.00000000
W       24.75706152      48.88404892       2.15303522  T       0.00000000       0.00000000       0.00000000
W       27.36281251      48.88413361       3.05697798  T       0.00000000       0.00000000       0.00000000
W       26.06090903      51.14053885       1.18584065  T       0.00000000       0.00000000       0.00000000
W       28.66647965      51.14079732       2.08459787  T       0.00000000       0.00000000       0.00000000
W       23.45527997      51.14038334       3.04641270  T       0.00000000       0.00000000       0.00000000
W       22.15318996      53.39677321       1.18053700  T       0.00000000       0.00000000       0.00000000
W       24.75868750      53.39700288       2.08262855  T       0.00000000       0.00000000       0.00000000
W       27.36408886      53.39735815       2.98115625  T       0.00000000       0.00000000       0.00000000
W       26.06152233      55.65393926       1.11867094  T       0.00000000       0.00000000       0.00000000
W       28.66660798      55.65458220       2.01352180  T       0.00000000       0.00000000       0.00000000
W       23.45626138      55.65350199       2.98315845  T       0.00000000       0.00000000       0.00000000
W       24.75885725      57.91051938       2.02270767  T       0.00000000       0.00000000       0.00000000
W       27.36383873      57.91122213       2.91858269  T       0.00000000       0.00000000       0.00000000
W       26.06104914      60.16782679       1.06304147  T       0.00000000       0.00000000       0.00000000
W       28.66576402      60.16881536       1.95659548  T       0.00000000       0.00000000       0.00000000
W       27.36295006      62.42537795       2.86794832  T       0.00000000       0.00000000       0.00000000
W       33.86264463      15.05075270      -0.91520064  T       0.00000000       0.00000000       0.00000000
W       36.46887967      15.05253509       0.04148285  T       0.00000000       0.00000000       0.00000000
W       31.25647261      15.04910346       0.89430518  T       0.00000000       0.00000000       0.00000000
W       29.95288121      17.30360645      -0.98253110  T       0.00000000       0.00000000       0.00000000
W       32.55901005      17.30516628      -0.02922229  T       0.00000000       0.00000000       0.00000000
W       35.16526985      17.30696659       0.92757804  T       0.00000000       0.00000000       0.00000000
W       33.86153392      19.56120597      -0.95323944  T       0.00000000       0.00000000       0.00000000
W       36.46789893      19.56318746       0.00724980  T       0.00000000       0.00000000       0.00000000
W       31.25533261      19.55952100       0.85377831  T       0.00000000       0.00000000       0.00000000
W       29.95172662      21.81395244      -1.02919783  T       0.00000000       0.00000000       0.00000000
W       32.55775627      21.81538621      -0.07438235  T       0.00000000       0.00000000       0.00000000
W       35.16404000      21.81721531       0.88533941  T       0.00000000       0.00000000       0.00000000
W       33.86014541      24.07118829      -1.00418601  T       0.00000000       0.00000000       0.00000000
W       36.47039773      24.08001256      -0.03800305  F       0.00000020      -0.00000021       0.00000005
W       31.25409676      24.06968951       0.80126610  T       0.00000000       0.00000000       0.00000000
W       29.95078175      26.32430384      -1.08885944  T       0.00000000       0.00000000       0.00000000
W       32.55644642      26.32535769      -0.13427295  T       0.00000000       0.00000000       0.00000000
W       35.16492377      26.33087778       0.83111960  F      -0.00000002       0.00000025      -0.00000030
W       33.86245725      28.58287347      -1.06870484  F      -0.00000003       0.00000025      -0.00000024
W       36.46666833      28.58443167      -0.09805426  F       0.00000019      -0.00000005      -0.00000013
W       31.25978704      28.58501979       0.73480275  F       0.00000003      -0.00000009      -0.00000022
W       29.95821953      30.83928403      -1.16260543  F      -0.00000035      -0.00000002      -0.00000019
W       32.56162036      30.83892517      -0.20890664  F       0.00000025      -0.00000023      -0.00000028
W       35.16344349      30.83749350       0.75447462  F      -0.00000008       0.00000001      -0.00000025
W       33.86140794      33.09270348      -1.16065088  F      -0.00000025      -0.00000005      -0.00000016
W       36.46385324      33.09159531      -0.19489853  F      -0.00000012      -0.00000013      -0.00000005
W       31.25978587      33.09409085       0.64872578  F       0.00000004       0.00000013       0.00000006
W       29.95673855      35.34887728      -1.25525720  F       0.00000028      -0.00000027       0.00000005
W       32.55960842      35.34805495      -0.31264351  F      -0.00000031      -0.00000027       0.00000014
W       35.16184466      35.34702804       0.63901532  F      -0.00000027       0.00000020      -0.00000009
W       33.86208526      37.60294475      -1.28689631  F      -0.00000015       0.00000014      -0.00000004
W       36.46378706      37.60232600      -0.34230155  F      -0.00000029       0.00000020      -0.00000017
W       31.26024077      37.60338563       0.53978159  F      -0.00000021      -0.00000020       0.00000012
W       29.96347427      39.85882447      -1.36358018  F      -0.00000058      -0.00000000       0.00000008
W       32.56507751      39.85901336      -0.44020879  F      -0.00000028      -0.00000009       0.00000001
W       35.16663117      39.85904040       0.48484898  F       0.00000003       0.00000005      -0.00000010
W       33.87110163      42.11527935       1.32971558  F      -0.00000012       0.00000007       0.00000002
W       36.47322081      42.11627239       2.23662171  F      -0.00000059      -0.00000026      -0.00000004
W       31.26838955      42.11445036       3.18175412  F      -0.00000052      -0.00000012       0.00000004
W       29.97104272      44.36919302       1.28928573  F      -0.00000035       0.00000033      -0.00000013
W       32.57405821      44.37033966       2.19239221  F      -0.00000021       0.00000001       0.00000032
W       35.17677570      44.37212981       3.08901956  F      -0.00000012      -0.00000016       0.00000016
W       33.87874557      46.62689752       1.19773828  F      -0.00000005       0.00000015       0.00000028
W       36.48128889      46.62917755       2.08018649  F       0.00000004       0.00000003       0.00000011
W       31.27648978      46.62506471       3.06856138  F      -0.00000030       0.00000002       0.00000023
W       29.97577066      48.88075800       1.19122691  F       0.00000018       0.00000011      -0.00000003
W       32.57990815      48.88143576       2.08229490  F       0.00000008       0.00000006       0.00000015
W       35.18200689      48.88392325       2.96470951  F       0.00000007      -0.00000008       0.00000032
W       33.88254465      51.13825122       1.09598241  F      -0.00000022       0.00000010       0.00000037
W       36.48413527      51.14196912       1.97002114  F       0.00000015       0.00000039       0.00000024
W       31.27850999      51.13681013       2.97554690  F       0.00000011      -0.00000004       0.00000023
W       29.96932219      53.39791420       1.11192418  T       0.00000000       0.00000000       0.00000000
W       32.58104900      53.39313896       1.99738356  F       0.00000000      -0.00000013       0.00000008
W       35.18367768      53.39658613       2.87520153  F      -0.00000051       0.00000017       0.00000015
W       33.88104513      55.65272230       1.02156293  F       0.00000008      -0.00000003       0.00000017
W       36.48393558      55.65464709       1.89640367  F      -0.00000004       0.00000002       0.00000006
W       31.27144293      55.65552653       2.90358354  T       0.00000000       0.00000000       0.00000000
W       29.96859689      57.91220046       1.04718316  T       0.00000000       0.00000000       0.00000000
W       32.57308105      57.91354206       1.93429322  T       0.00000000       0.00000000       0.00000000
W       35.17726402      57.91532596       2.81594065  T       0.00000000       0.00000000       0.00000000
W       33.87450293      60.17177105       0.96820403  T       0.00000000       0.00000000       0.00000000
W       36.47854246      60.17378985       1.84861672  T       0.00000000       0.00000000       0.00000000
W       31.27025233      60.17011369       2.84623051  T       0.00000000       0.00000000       0.00000000
W       29.96745495      62.42662593       0.99655483  T       0.00000000       0.00000000       0.00000000
W       32.57176901      62.42816927       1.88477738  T       0.00000000       0.00000000       0.00000000
W       35.17591682      62.43000246       2.76909696  T       0.00000000       0.00000000       0.00000000
W       33.87329414      64.68621022       0.92643067  T       0.00000000       0.00000000       0.00000000
W       36.47744354      64.68806784       1.81066642  T       0.00000000       0.00000000       0.00000000
W       31.26905583      64.68453195       2.80213597  T       0.00000000       0.00000000       0.00000000
W       32.57067376      66.94241421       1.84709135  T       0.00000000       0.00000000       0.00000000
W       35.17491448      66.94411224       2.73456938  T       0.00000000       0.00000000       0.00000000
W       37.77233663      12.79783975      -0.84816448  T       0.00000000       0.00000000       0.00000000
W       40.37846636      12.79938862       0.11007150  T       0.00000000       0.00000000       0.00000000
W       42.98453370      12.80066611       1.07012194  T       0.00000000       0.00000000       0.00000000
W       41.68131738      15.05595548      -0.80025494  T       0.00000000       0.00000000       0.00000000
W       44.28743554      15.05720667       0.16374515  T       0.00000000       0.00000000       0.00000000
W       39.07512173      15.05432858       1.00098452  T       0.00000000       0.00000000       0.00000000
W       37.77160381      17.30892239      -0.87534050  T       0.00000000       0.00000000       0.00000000
W       40.37793863      17.31086766       0.08834057  T       0.00000000       0.00000000       0.00000000
W       42.98420816      17.31256008       1.05491862  T       0.00000000       0.00000000       0.00000000
W       41.68079614      19.56746680      -0.82235005  T       0.00000000       0.00000000       0.00000000
W       44.28714904      19.56919292       0.14984973  T       0.00000000       0.00000000       0.00000000
W       39.07435238      19.56535209       0.97205287  T       0.00000000       0.00000000       0.00000000
W       37.77053334      21.81941794      -0.91288163  T       0.00000000       0.00000000       0.00000000
W       40.37841312      21.82877318       0.06046036  F       0.00000040      -0.00000015      -0.00000001
W       42.98539898      21.83313768       1.03819204  F      -0.00000040       0.00000005       0.00000016
W       41.68131465      24.08512277      -0.84505347  F       0.00000021      -0.00000062       0.00000021
W       44.28789097      24.08782234       0.14125008  F      -0.00000022      -0.00000024       0.00000008
W       39.07539718      24.08177563       0.93668096  F      -0.00000020       0.00000029       0.00000012
W       37.77137549      26.33363429      -0.95790354  F       0.00000033      -0.00000030      -0.00000025
W       40.37738381      26.33592278       0.02566470  F       0.00000012      -0.00000064       0.00000001
W       42.98403080      26.33876618       1.01749180  F       0.00000005      -0.00000041       0.00000001
W       41.67965318      28.58947045      -0.88314271  F      -0.00000008       0.00000007      -0.00000004
W       44.28712467      28.59182543       0.12335307  F      -0.00000037      -0.00000040      -0.00000006
W       39.07256433      28.58657261       0.88435319  F       0.00000017       0.00000034      -0.00000026
W       37.76743598      30.83789720      -1.03223539  F      -0.00000005      -0.00000046      -0.00000023
W       40.37355671      30.83954159      -0.03836439  F      -0.00000044      -0.00000015      -0.00000025
W       42.98175094      30.84241119       0.97559261  F      -0.00000056      -0.00000015       0.00000009
W       41.67401612      33.09145876      -0.96459366  F      -0.00000032       0.00000033       0.00000033
W       44.28189069      33.09371724       0.07538298  F       0.00000003       0.00000019       0.00000045
W       39.06792021      33.09133473       0.78868972  F      -0.00000014       0.00000025      -0.00000016
W       37.76435798      35.34596532      -1.15845195  F       0.00000002      -0.00000018      -0.00000027
W       40.36695602      35.34370433      -0.16838264  F       0.00000004      -0.00000011      -0.00000008
W       42.97003900      35.34380625       0.86149329  F      -0.00000040      -0.00000004       0.00000022
W       41.66305979      37.59672207      -1.15621976  F      -0.00000022       0.00000024      -0.00000008
W       44.26631827      37.59480799      -0.09999974  F      -0.00000033      -0.00000007       0.00000010
W       39.06385358      37.60100332       0.61697552  F      -0.00000039       0.00000025      -0.00000002
W       37.76704729      39.85914807      -1.34990347  F       0.00000013      -0.00000010      -0.00000008
W       40.36565308      39.85519934      -0.41054597  F      -0.00000066      -0.00000029      -0.00000028
W       42.96321572      39.85211090       0.55308081  F      -0.00000045      -0.00000004      -0.00000017
W       41.67197259      42.11958610       1.26034130  F      -0.00000054      -0.00000001       0.00000060
W       44.27083970      42.13250971       2.07703339  F      -0.00000027      -0.00000025      -0.00000021
W       39.07299054      42.11638205       3.13912282  F       0.00000054      -0.00000008       0.00000013
W       37.77889949      44.37374358       1.21231456  F      -0.00000004       0.00000054       0.00000018
W       40.38066988      44.37819512       2.07821667  F      -0.00000023      -0.00000027       0.00000011
W       42.98250334      44.38944168       2.89427808  F       0.00000012       0.00000016       0.00000006
W       41.68577006      46.64156180       1.01700687  F       0.00000043       0.00000004       0.00000010
W       44.29062812      46.65301434       1.80054303  F       0.00000015       0.00000014       0.00000007
W       39.08358343      46.63331444       2.94599096  F      -0.00000041       0.00000034       0.00000023
W       37.78390901      48.88733411       1.07130596  F       0.00000025       0.00000000       0.00000012
W       40.38597105      48.89273052       1.92145393  F      -0.00000036       0.00000024       0.00000026
W       42.98785448      48.90109442       2.74214113  F      -0.00000029      -0.00000030       0.00000005
W       41.68769624      51.15279735       0.90965644  F      -0.00000005       0.00000036       0.00000048
W       44.29087645      51.15806074       1.73400923  F      -0.00000035      -0.00000007       0.00000058
W       39.08578098      51.14639010       2.83050439  F      -0.00000026       0.00000048       0.00000016
W       37.78515269      53.40053221       0.98067507  F       0.00000010      -0.00000010       0.00000009
W       40.38692114      53.40548555       1.83706899  F      -0.00000017       0.00000021       0.00000002
W       42.98939696      53.41052388       2.68116177  F       0.00000010       0.00000033       0.00000010
W       41.68802038      55.66325169       0.85713441  F       0.00000004       0.00000021      -0.00000014
W       44.29098542      55.66590342       1.70680999  F       0.00000018      -0.00000018      -0.00000004
W       39.08625066      55.65832073       2.76284802  F       0.00000000       0.00000073      -0.00000005
W       37.78501500      57.91139322       0.92393254  F       0.00000019      -0.00000037       0.00000009
W       40.38714767      57.91681516       1.79173257  F      -0.00000010      -0.00000043      -0.00000011
W       42.98879051      57.91933111       2.65246876  F       0.00000003      -0.00000011       0.00000014
W       41.68633413      60.17837939       0.83146855  T       0.00000000       0.00000000       0.00000000
W       44.29185829      60.17251882       1.69408276  F      -0.00000006       0.00000008      -0.00000028
W       39.08244751      60.17607413       2.72404948  T       0.00000000       0.00000000       0.00000000
W       37.77995637      62.43205199       0.88615108  T       0.00000000       0.00000000       0.00000000
W       40.38397241      62.43414623       1.76257437  T       0.00000000       0.00000000       0.00000000
W       42.98804938      62.43601080       2.63559269  T       0.00000000       0.00000000       0.00000000
W       41.68573224      64.69174954       0.80656000  T       0.00000000       0.00000000       0.00000000
W       44.28998038      64.69313213       1.68235620  T       0.00000000       0.00000000       0.00000000
W       39.08156760      64.68997995       2.69168664  T       0.00000000       0.00000000       0.00000000
W       37.77912973      66.94586760       0.85609247  T       0.00000000       0.00000000       0.00000000
W       40.38337145      66.94753500       1.73837768  T       0.00000000       0.00000000       0.00000000
W       42.98767844      66.94893022       2.61857462  T       0.00000000       0.00000000       0.00000000
W       41.68533602      69.20473898       0.78901098  T       0.00000000       0.00000000       0.00000000
W       44.28976147      69.20576693       1.67143142  T       0.00000000       0.00000000       0.00000000
W       39.08097580      69.20336573       2.66838790  T       0.00000000       0.00000000       0.00000000
W       45.59053417      12.80151279      -0.73177021  T       0.00000000       0.00000000       0.00000000
W       48.19649172      12.80180975       0.23027072  T       0.00000000       0.00000000       0.00000000
W       50.80244928      12.80151279       1.19231164  T       0.00000000       0.00000000       0.00000000
W       49.49950088      15.05789033      -0.66848878  T       0.00000000       0.00000000       0.00000000
W       52.10554791      15.05720667       0.29679629  T       0.00000000       0.00000000       0.00000000
W       46.89348256      15.05789033       1.12903021  T       0.00000000       0.00000000       0.00000000
W       45.59038376      17.31372608      -0.73960341  T       0.00000000       0.00000000       0.00000000
W       48.19649172      17.31414348       0.23027072  T       0.00000000       0.00000000       0.00000000
W       50.80259969      17.31372608       1.20014485  T       0.00000000       0.00000000       0.00000000
W       49.49958993      19.57017334      -0.66374305  T       0.00000000       0.00000000       0.00000000
W       52.10583440      19.56919292       0.31069170  T       0.00000000       0.00000000       0.00000000
W       46.89339351      19.57017334       1.12428449  T       0.00000000       0.00000000       0.00000000
W       45.59099000      21.83374329      -0.74497741  F      -0.00000000      -0.00000022      -0.00000017
W       48.19659283      21.83375543       0.23630399  F       0.00000033       0.00000006       0.00000005
W       50.80220142      21.83349309       1.21707724  F      -0.00000018       0.00000039       0.00000003
W       49.49987751      24.08823686      -0.64442948  F       0.00000013      -0.00000033      -0.00000006
W       52.10605054      24.08709081       0.34227551  F      -0.00000004      -0.00000037       0.00000019
W       46.89393845      24.08843936       1.12992770  F       0.00000008      -0.00000012      -0.00000004
W       45.59076826      26.34043688      -0.74859687  F       0.00000033       0.00000023       0.00000014
W       48.19718111      26.34068268       0.25032388  F       0.00000043       0.00000038      -0.00000010
W       50.80388374      26.33972307       1.24786322  F       0.00000004      -0.00000012      -0.00000010
W       49.50132917      28.59227712      -0.61661668  F       0.00000048      -0.00000028       0.00000005
W       52.10898455      28.59042028       0.39046925  F       0.00000037      -0.00000006       0.00000005
W       46.89420742      28.59308008       1.13487934  F      -0.00000003      -0.00000027       0.00000011
W       45.58977707      30.84440243      -0.76067485  F       0.00000046       0.00000045       0.00000013
W       48.19919231      30.84454309       0.27181929  F      -0.00000004       0.00000039       0.00000007
W       50.80741545      30.84282189       1.29950911  F       0.00000058       0.00000004       0.00000041
W       49.50779396      33.09371608      -0.55946025  F       0.00000053      -0.00000005      -0.00000024
W       52.11600757      33.09163717       0.48214353  F       0.00000008      -0.00000034       0.00000056
W       46.89473830      33.09522295       1.13921244  F      -0.00000035      -0.00000018      -0.00000004
W       45.58429277      35.34270403      -0.80692758  F      -0.00000015      -0.00000003      -0.00000036
W       48.20570429      35.34253623       0.32597389  F       0.00000009       0.00000028      -0.00000014
W       50.82055024      35.34363015       1.42383845  F       0.00000031       0.00000005       0.00000010
W       49.52497245      37.59430054      -0.37311429  F       0.00000021       0.00000001       0.00000038
W       52.12840205      37.59667091       0.68625241  F      -0.00000031      -0.00000029       0.00000025
W       46.89513860      37.58648070       1.14169134  F       0.00000019      -0.00000023       0.00000005
W       45.57590096      39.85516273      -1.15295276  F      -0.00000061      -0.00000009      -0.00000050
W       48.21617567      39.85558002       0.68934170  F       0.00000050      -0.00000029      -0.00000057
W       50.82891461      39.85219667       1.74782742  F       0.00000018       0.00000039      -0.00000020
W       49.52120119      42.13348386       0.23526322  F       0.00000021      -0.00000005       0.00000065
W       52.11985823      42.12040904       1.04902179  F       0.00000012       0.00000018      -0.00000053
W       46.89640944      42.14165530       2.53601725  F      -0.00000016       0.00000011       0.00000026
W       45.59214793      44.40553007       0.83456266  F      -0.00000054       0.00000017       0.00000024
W       48.19920990      44.40592610       1.48245651  F      -0.00000052       0.00000028       0.00000042
W       50.80900594      44.39042883       2.18525795  F       0.00000035      -0.00000006      -0.00000005
W       49.50069160      46.65371798       0.52071390  F      -0.00000033       0.00000065       0.00000042
W       52.10560679      46.64263683       1.30348565  F      -0.00000000       0.00000024      -0.00000011
W       46.89567181      46.65899963       2.54241235  F      -0.00000010      -0.00000010       0.00000036
W       45.59214313      48.90736019       0.77211282  F       0.00000010      -0.00000012       0.00000030
W       48.19901419      48.90771011       1.55397471  F       0.00000005      -0.00000015       0.00000039
W       50.80343666      48.90196725       2.34676584  F      -0.00000019      -0.00000014       0.00000043
W       49.50025212      51.15854055       0.59666885  F      -0.00000007      -0.00000012       0.00000045
W       52.10349499      51.15384682       1.42057632  F       0.00000006      -0.00000042       0.00000025
W       46.89548389      51.16000702       2.54701632  F      -0.00000024      -0.00000014       0.00000061
W       45.59313965      53.41309948       0.75238455  F      -0.00000016       0.00000062       0.00000023
W       48.19756793      53.41310358       1.58321858  F       0.00000038       0.00000035       0.00000006
W       50.80161307      53.41111477       2.41750196  F      -0.00000038       0.00000026      -0.00000014