1304
Lattice="121.24753676820629 0.0 0.0 0.0 114.86608746461648 0.0 0.0 0.0 3.1907246517949024" Properties=species:S:1:pos:R:3:fix_mask:L:1:forces:R:3 energy=-16618.990131245915 pbc="T T T"
W       15.33212046      48.08276447       1.59536233  T       0.00000000       0.00000000       0.00000000
W       15.27381830      51.26754507       1.59536233  T       0.00000000       0.00000000       0.00000000
W       15.21335823      54.45453226       1.59536233  T       0.00000000       0.00000000       0.00000000
W       18.34207121      57.65467282       1.59536233  T       0.00000000       0.00000000       0.00000000
W       18.27635770      60.84681051       1.59536233  T       0.00000000       0.00000000       0.00000000
W       18.21236373      64.04169276       1.59536233  T       0.00000000       0.00000000       0.00000000
W       18.69595819      38.55298034       1.59536233  T       0.00000000       0.00000000       0.00000000
W       18.64695535      41.73258849       1.59536233  T       0.00000000       0.00000000       0.00000000
W       17.01686107      43.31563195       0.00000000  T       0.00000000       0.00000000       0.00000000
W       18.59309822      44.91307988       1.59536233  T       0.00000000       0.00000000       0.00000000
W       16.96209865      46.49731920       0.00000000  T       0.00000000       0.00000000       0.00000000
W       18.53477296      48.09502344       1.59536233  T       0.00000000       0.00000000       0.00000000
W       16.90356034      49.68068663       0.00000000  T       0.00000000       0.00000000       0.00000000
W       18.47271938      51.27898027       1.59536233  T       0.00000000       0.00000000       0.00000000
W       16.84210347      52.86620138       0.00000000  T       0.00000000       0.00000000       0.00000000
W       18.40802866      54.46542619       1.59536233  T       0.00000000       0.00000000       0.00000000
W       16.77886186      56.05421582       0.00000000  T       0.00000000       0.00000000       0.00000000
W       21.53217636      57.66619258       1.59536233  T       0.00000000       0.00000000       0.00000000
W       19.90291376      59.25606453       0.00000000  T       0.00000000       0.00000000       0.00000000
W       21.46136737      60.85857074       1.59536233  T       0.00000000       0.00000000       0.00000000
W       19.83551225      62.44982427       0.00000000  T       0.00000000       0.00000000       0.00000000
W       21.39271033      64.05411097       1.59536233  T       0.00000000       0.00000000       0.00000000
W       19.77077307      65.64634892       0.00000000  T       0.00000000       0.00000000       0.00000000
W       21.32775671      67.25234459       1.59536233  T       0.00000000       0.00000000       0.00000000
W       19.70992743      68.84514442       0.00000000  T       0.00000000       0.00000000       0.00000000
W       21.26761967      70.45263272       1.59536233  T       0.00000000       0.00000000       0.00000000
W       19.65380523      72.04561007       0.00000000  T       0.00000000       0.00000000       0.00000000
W       21.21293399      73.65428023       1.59536233  T       0.00000000       0.00000000       0.00000000
W       21.99224740      32.21302639       1.59536233  T       0.00000000       0.00000000       0.00000000
W       21.95272083      35.39163130       1.59536233  T       0.00000000       0.00000000       0.00000000
W       20.32452188      36.97184393       0.00000000  T       0.00000000       0.00000000       0.00000000
W       21.90779267      38.56993517       1.59536233  T       0.00000000       0.00000000       0.00000000
W       20.27736305      40.15069858       0.00000000  T       0.00000000       0.00000000       0.00000000
W       21.85717204      41.74841793       1.59536233  T       0.00000000       0.00000000       0.00000000
W       20.22488410      43.33010380       0.00000000  T       0.00000000       0.00000000       0.00000000
W       21.80083074      44.92768724       1.59536233  T       0.00000000       0.00000000       0.00000000
W       20.16727720      46.51066177       0.00000000  T       0.00000000       0.00000000       0.00000000
W       21.73911660      48.10844176       1.59536233  T       0.00000000       0.00000000       0.00000000
W       20.10511147      49.69301410       0.00000000  T       0.00000000       0.00000000       0.00000000
W       21.67284113      51.29139640       1.59536233  T       0.00000000       0.00000000       0.00000000
W       20.03937329      52.87776117       0.00000000  T       0.00000000       0.00000000       0.00000000
W       21.60329798      54.47717473       1.59536233  T       0.00000000       0.00000000       0.00000000
W       19.97143157      56.06536542       0.00000000  T       0.00000000       0.00000000       0.00000000
W       24.72215255      57.67865651       1.59536233  T       0.00000000       0.00000000       0.00000000
W       23.09017254      59.26810894       0.00000000  T       0.00000000       0.00000000       0.00000000
W       24.64539854      60.87134051       1.59536233  T       0.00000000       0.00000000       0.00000000
W       23.01747904      62.46238462       0.00000000  T       0.00000000       0.00000000       0.00000000
W       24.57138469      64.06770334       1.59536233  T       0.00000000       0.00000000       0.00000000
W       22.94812468      65.65982636       0.00000000  T       0.00000000       0.00000000       0.00000000
W       24.50201696      67.26710857       1.59536233  T       0.00000000       0.00000000       0.00000000
W       22.88357842      68.85977813       0.00000000  T       0.00000000       0.00000000       0.00000000
W       24.43857449      70.46871390       1.59536233  T       0.00000000       0.00000000       0.00000000
W       22.82475244      72.06146660       0.00000000  T       0.00000000       0.00000000       0.00000000
W       24.38168461      73.67163821       1.59536233  T       0.00000000       0.00000000       0.00000000
W       22.77202793      75.26412873       0.00000000  T       0.00000000       0.00000000       0.00000000
W       24.33142818      76.87508827       1.59536233  T       0.00000000       0.00000000       0.00000000
W       22.72536261      78.46709950       0.00000000  T       0.00000000       0.00000000       0.00000000
W       24.28750062      80.07842679       1.59536233  T       0.00000000       0.00000000       0.00000000
W       25.24095059      29.05460178       1.59536233  T       0.00000000       0.00000000       0.00000000
W       23.61714873      30.63360268       0.00000000  T       0.00000000       0.00000000       0.00000000
W       25.20691878      32.23351958       1.59536233  T       0.00000000       0.00000000       0.00000000
W       23.58027720      33.81223688       0.00000000  T       0.00000000       0.00000000       0.00000000
W       25.16745109      35.41147848       1.59536233  T       0.00000000       0.00000000       0.00000000
W       23.53793028      36.99023167       0.00000000  T       0.00000000       0.00000000       0.00000000
W       25.12190939      38.58882216       1.59536233  T       0.00000000       0.00000000       0.00000000
W       23.48963425      40.16801029       0.00000000  T       0.00000000       0.00000000       0.00000000
W       25.06980044      41.76607132       1.59536233  T       0.00000000       0.00000000       0.00000000
W       23.43512716      43.34615368       0.00000000  T       0.00000000       0.00000000       0.00000000
W       25.01092016      44.94393201       1.59536233  T       0.00000000       0.00000000       0.00000000
W       23.37449391      46.52538453       0.00000000  T       0.00000000       0.00000000       0.00000000
W       24.94552351      48.12326291       1.59536233  T       0.00000000       0.00000000       0.00000000
W       23.30829970      49.70650862       0.00000000  T       0.00000000       0.00000000       0.00000000
W       24.88031614      51.30592635       1.59536233  F       0.00022957       0.00016497       0.00000000
W       23.23767332      52.89030793       0.00000000  T       0.00000000       0.00000000       0.00000000
W       24.79862255      54.49184505       1.59536233  F       0.00036058      -0.00036459      -0.00000000
W       23.16428319      56.07740069       0.00000000  T       0.00000000       0.00000000       0.00000000
W       27.91285058      57.69106066       1.59536233  F      -0.00072659       0.00017973      -0.00000000
W       26.27679125      59.28119797       0.00000000  T       0.00000000       0.00000000       0.00000000
W       27.83157004      60.88389724       1.59536233  F      -0.00127194       0.00024594       0.00000000
W       26.19792902      62.47613004       0.00000000  T       0.00000000       0.00000000       0.00000000
W       27.74796340      64.08272238       1.59536233  T       0.00000000       0.00000000       0.00000000
W       26.12332734      65.67471384       0.00000000  T       0.00000000       0.00000000       0.00000000
W       27.67367027      67.28357342       1.59536233  T       0.00000000       0.00000000       0.00000000
W       26.05474301      68.87606219       0.00000000  T       0.00000000       0.00000000       0.00000000
W       27.60675010      70.48674044       1.59536233  T       0.00000000       0.00000000       0.00000000
W       25.99314788      72.07916908       0.00000000  T       0.00000000       0.00000000       0.00000000
W       27.54775525      73.69110127       1.59536233  T       0.00000000       0.00000000       0.00000000
W       25.93881111      75.28308921       0.00000000  T       0.00000000       0.00000000       0.00000000
W       27.49654627      76.89570480       1.59536233  T       0.00000000       0.00000000       0.00000000
W       25.89148601      78.48704546       0.00000000  T       0.00000000       0.00000000       0.00000000
W       27.45254731      80.09984013       1.59536233  T       0.00000000       0.00000000       0.00000000
W       25.85061169      81.69046576       0.00000000  T       0.00000000       0.00000000       0.00000000
W       27.41496665      83.30303471       1.59536233  T       0.00000000       0.00000000       0.00000000
W       28.48451779      25.89713611       1.59536233  T       0.00000000       0.00000000       0.00000000
W       26.86346087      27.47584504       0.00000000  T       0.00000000       0.00000000       0.00000000
W       28.45646232      29.07738917       1.59536233  T       0.00000000       0.00000000       0.00000000
W       26.83239000      30.65530490       0.00000000  T       0.00000000       0.00000000       0.00000000
W       28.42337106      32.25616614       1.59536233  T       0.00000000       0.00000000       0.00000000
W       26.79603304      33.83352195       0.00000000  T       0.00000000       0.00000000       0.00000000
W       28.38437246      35.43360504       1.59536233  T       0.00000000       0.00000000       0.00000000
W       26.75361657      37.01074246       0.00000000  T       0.00000000       0.00000000       0.00000000
W       28.33858431      38.61001824       1.59536233  T       0.00000000       0.00000000       0.00000000
W       26.70443543      40.18739562       0.00000000  T       0.00000000       0.00000000       0.00000000
W       28.28746541      41.78975564       1.59536233  F       0.00044336      -0.00036887      -0.00000000
W       26.64799136      43.36412641       0.00000000  T       0.00000000       0.00000000       0.00000000
W       28.22381928      44.96553008       1.59536233  F       0.00062958      -0.00011401      -0.00000000
W       26.58619167      46.54478198      -0.00000000  F       0.00014137      -0.00018657       0.00000000
W       28.15435521      48.14206561       1.59536233  F       0.00061688      -0.00002057      -0.00000000
W       26.51586291      49.72266038      -0.00000000  F       0.00079299       0.00015430       0.00000000
W       28.07899185      51.32079096       1.59536233  F       0.00068277       0.00012537       0.00000000
W       26.43947874      52.90455596      -0.00000000  F       0.00109277       0.00037308       0.00000000
W       27.99626924      54.50351809       1.59536233  F       0.00022060       0.00036252      -0.00000000
W       26.35848690      56.08951892       0.00000000  F      -0.00011207      -0.00002850       0.00000000
W       31.09933415      57.70782180       1.59536233  F       0.00076863       0.00096443      -0.00000000
W       29.46313445      59.29488160       0.00000000  F      -0.00115899       0.00062627       0.00000000
W       31.00974058      60.90118932       1.59536233  F      -0.00048852       0.00048382      -0.00000000
W       29.37851109      62.49067963       0.00000000  F      -0.00135779       0.00032682      -0.00000000
W       30.92382052      64.09906521       1.59536233  F      -0.00047813       0.00038140      -0.00000000
W       29.29970208      65.68965111      -0.00000000  F      -0.00092885       0.00032712       0.00000000
W       30.84710181      67.29992210       1.59536233  F      -0.00103099       0.00037254       0.00000000
W       29.22980363      68.89158509       0.00000000  F      -0.00110265       0.00022198      -0.00000000
W       30.77729915      70.50467183       1.59536233  F      -0.00094059       0.00031124       0.00000000
W       29.15856431      72.09912721       0.00000000  T       0.00000000       0.00000000       0.00000000
W       30.71076726      73.71312190       1.59536233  T       0.00000000       0.00000000       0.00000000
W       29.10288699      75.30439894       0.00000000  T       0.00000000       0.00000000       0.00000000
W       30.65904185      76.91887627       1.59536233  T       0.00000000       0.00000000       0.00000000
W       29.05530407      78.50931139       0.00000000  T       0.00000000       0.00000000       0.00000000
W       30.61547689      80.12367863       1.59536233  T       0.00000000       0.00000000       0.00000000
W       29.01493669      81.71326773       0.00000000  T       0.00000000       0.00000000       0.00000000
W       30.57894246      83.32708524       1.59536233  T       0.00000000       0.00000000       0.00000000
W       28.98080503      84.91592197       0.00000000  T       0.00000000       0.00000000       0.00000000
W       30.54832576      86.52889305       1.59536233  T       0.00000000       0.00000000       0.00000000
W       31.72180493      22.73902755       1.59536233  T       0.00000000       0.00000000       0.00000000
W       30.10399504      24.31826740       0.00000000  T       0.00000000       0.00000000       0.00000000
W       31.69968286      25.92153457       1.59536233  T       0.00000000       0.00000000       0.00000000
W       30.07894318      27.49954601       0.00000000  T       0.00000000       0.00000000       0.00000000
W       31.67326127      29.10229432       1.59536233  T       0.00000000       0.00000000       0.00000000
W       30.04919092      30.67917782       0.00000000  T       0.00000000       0.00000000       0.00000000
W       31.64159706      32.28122881       1.59536233  T       0.00000000       0.00000000       0.00000000
W       30.01381002      33.85718993       0.00000000  T       0.00000000       0.00000000       0.00000000
W       31.60360173      35.45837945       1.59536233  T       0.00000000       0.00000000       0.00000000
W       29.97178818      37.03376173       0.00000000  T       0.00000000       0.00000000       0.00000000
W       31.55713513      38.63612967       1.59536233  F       0.00053651      -0.00017260      -0.00000000
W       29.92240929      40.21252785      -0.00000000  F       0.00056611       0.00020021       0.00000000
W       31.50179043      41.81048821       1.59536233  F       0.00092925      -0.00038692       0.00000000
W       29.86295429      43.38769821      -0.00000000  F       0.00075030       0.00001005       0.00000000
W       31.43651434      44.98415653       1.59536233  F       0.00013199       0.00015794      -0.00000000
W       29.79494091      46.56223345      -0.00000000  F       0.00037366      -0.00020556       0.00000000
W       31.36230899      48.15920208       1.59536233  F       0.00032287      -0.00031246       0.00000000
W       29.71947229      49.73920717      -0.00000000  F       0.00020838      -0.00029027       0.00000000
W       31.27995316      51.33747741       1.59536233  F       0.00101909       0.00020766      -0.00000000
W       29.63687819      52.91979699       0.00000000  F       0.00060866       0.00049597      -0.00000000
W       31.19075896      54.52010734       1.59536233  F       0.00117559       0.00068506       0.00000000
W       29.54974742      56.10482586       0.00000000  F       0.00000272       0.00088085       0.00000000
W       34.28499199      57.72544401       1.59536233  F       0.00155220       0.00018985       0.00000000
W       32.64473422      59.31278307      -0.00000000  F       0.00084590       0.00015255       0.00000000
W       34.18623324      60.91990433       1.59536233  F       0.00087714       0.00022623       0.00000000
W       32.55286822      62.50926680      -0.00000000  F       0.00044211       0.00037205       0.00000000
W       34.09386565      64.11963820       1.59536233  F       0.00011426       0.00008518       0.00000000
W       32.46848129      65.70969842      -0.00000000  F       0.00000133       0.00009187      -0.00000000
W       34.01129471      67.32302250       1.59536233  F       0.00030128      -0.00007773       0.00000000
W       32.39358122      68.91328013       0.00000000  F      -0.00067534       0.00025824      -0.00000000
W       33.93881862      70.52842226       1.59536233  F      -0.00004292       0.00032092       0.00000000
W       32.32558516      72.11860560      -0.00000000  F      -0.00048944       0.00030191      -0.00000000
W       33.87757683      73.73297295       1.59536233  F      -0.00025584       0.00064366      -0.00000000
W       32.27251109      75.32338597      -0.00000000  F      -0.00093685       0.00036827       0.00000000
W       33.82796428      76.93928490       1.59536233  F      -0.00096063       0.00066179      -0.00000000
W       32.21669856      78.53427408       0.00000000  T       0.00000000       0.00000000       0.00000000
W       33.77628789      80.15026729       1.59536233  T       0.00000000       0.00000000       0.00000000
W       32.17741525      81.73852611       0.00000000  T       0.00000000       0.00000000       0.00000000
W       33.74141038      83.35353457       1.59536233  T       0.00000000       0.00000000       0.00000000
W       32.14480404      84.94102002       0.00000000  T       0.00000000       0.00000000       0.00000000
W       33.71270281      86.55478132       1.59536233  T       0.00000000       0.00000000       0.00000000
W       32.11768047      88.14169957       0.00000000  T       0.00000000       0.00000000       0.00000000
W       33.68896969      89.75408936       1.59536233  T       0.00000000       0.00000000       0.00000000
W       34.95226960      19.57861757       1.59536233  T       0.00000000       0.00000000       0.00000000
W       33.33789950      21.15920935       0.00000000  T       0.00000000       0.00000000       0.00000000
W       34.93557673      22.76402876       1.59536233  T       0.00000000       0.00000000       0.00000000
W       33.31857874      24.34310902       0.00000000  T       0.00000000       0.00000000       0.00000000
W       34.91549484      25.94770887       1.59536233  T       0.00000000       0.00000000       0.00000000
W       33.29540296      27.52523407       0.00000000  T       0.00000000       0.00000000       0.00000000
W       34.89116053      29.12941600       1.59536233  T       0.00000000       0.00000000       0.00000000
W       33.26745277      30.70541483       0.00000000  T       0.00000000       0.00000000       0.00000000
W       34.86440194      32.31234813       1.59536233  F       0.00088821       0.00073996      -0.00000000
W       33.23361846      33.88356147       0.00000000  T       0.00000000       0.00000000       0.00000000
W       34.82377288      35.48743107       1.59536233  F       0.00033164      -0.00058180      -0.00000000
W       33.19101238      37.06086197      -0.00000000  F       0.00044151      -0.00031913       0.00000000
W       34.77627036      38.66066440       1.59536233  F      -0.00026290      -0.00057625       0.00000000
W       33.13943860      40.23467165       0.00000000  F       0.00033715      -0.00040804       0.00000000
W       34.71978724      41.83298221       1.59536233  F       0.00040137       0.00003330       0.00000000
W       33.07835226      43.40764776      -0.00000000  F       0.00049941      -0.00023341       0.00000000
W       34.65235236      45.00517280       1.59536233  F       0.00175384       0.00102292      -0.00000000
W       33.00697590      46.58113253       0.00000000  F       0.00064610       0.00041143       0.00000000
W       34.57347562      48.17871956       1.59536233  F       0.00272008       0.00105259      -0.00000000
W       32.92553871      49.75696846      -0.00000000  F       0.00204710       0.00038407       0.00000000
W       34.48385662      51.35550807       1.59536233  F       0.00229490       0.00053298      -0.00000000
W       32.83554790      52.93677384      -0.00000000  F       0.00195252       0.00056250       0.00000000
W       34.38604366      54.53735322       1.59536233  F       0.00202455       0.00055163       0.00000000
W       32.74023714      56.12181544       0.00000000  F       0.00215771       0.00093464      -0.00000000
W       37.46972924      57.74437009       1.59536233  F      -0.00113812      -0.00080454       0.00000000
W       35.82488083      59.33144122       0.00000000  F      -0.00040171      -0.00022350      -0.00000000
W       37.36008811      60.94036612       1.59536233  F      -0.00065248      -0.00080380      -0.00000000
W       35.72425891      62.52968513      -0.00000000  F      -0.00032658      -0.00017500       0.00000000
W       37.25956818      64.14251623       1.59536233  F      -0.00082044      -0.00022011      -0.00000000
W       35.63320965      65.73270678      -0.00000000  F      -0.00018635       0.00014187       0.00000000
W       37.17142511      67.34850403       1.59536233  F      -0.00069364       0.00018033      -0.00000000
W       35.55368143      68.93849866       0.00000000  F       0.00027766      -0.00000435      -0.00000000
W       37.09662410      70.55582382       1.59536233  F      -0.00001540       0.00065455       0.00000000
W       35.48599987      72.14456376      -0.00000000  F       0.00034616       0.00071528       0.00000000
W       37.03512996      73.76253747       1.59536233  F       0.00043742       0.00089757      -0.00000000
W       35.43160999      75.34993244       0.00000000  F      -0.00004874       0.00048096       0.00000000
W       36.98602462      76.96811254       1.59536233  F       0.00046660       0.00040382      -0.00000000
W       35.38466642      78.55622322      -0.00000000  F      -0.00077132       0.00062548       0.00000000
W       36.94398949      80.17333762       1.59536233  F      -0.00062679       0.00073076      -0.00000000
W       35.33816834      81.76647903       0.00000000  T       0.00000000       0.00000000       0.00000000
W       36.90260815      83.38250004       1.59536233  T       0.00000000       0.00000000       0.00000000
W       35.30768155      84.96836066       0.00000000  T       0.00000000       0.00000000       0.00000000
W       36.87636899      86.58265423       1.59536233  T       0.00000000       0.00000000       0.00000000
W       35.28275698      88.16807328       0.00000000  T       0.00000000       0.00000000       0.00000000
W       36.85502069      89.78060872       1.59536233  T       0.00000000       0.00000000       0.00000000
W       35.26224222      91.36581692       0.00000000  T       0.00000000       0.00000000       0.00000000
W       36.83749724      92.97665370       1.59536233  T       0.00000000       0.00000000       0.00000000
W       38.16389533      19.60302715       1.59536233  T       0.00000000       0.00000000       0.00000000
W       36.55067002      21.18406843       0.00000000  T       0.00000000       0.00000000       0.00000000
W       38.14934254      22.79015704       1.59536233  T       0.00000000       0.00000000       0.00000000
W       36.53347571      24.36943715       0.00000000  T       0.00000000       0.00000000       0.00000000
W       38.13162951      25.97550881       1.59536233  T       0.00000000       0.00000000       0.00000000
W       36.51257594      27.55289144       0.00000000  T       0.00000000       0.00000000       0.00000000
W       38.10984985      29.15873361       1.59536233  T       0.00000000       0.00000000       0.00000000
W       36.48696202      30.73413968       0.00000000  T       0.00000000       0.00000000       0.00000000
W       38.08278063      32.33908046       1.59536233  F       0.00003451      -0.00044408       0.00000000
W       36.45523488      33.91393636      -0.00000000  F       0.00001032      -0.00070140      -0.00000000
W       38.04527498      35.51539243       1.59536233  F      -0.00038399      -0.00101315       0.00000000
W       36.41173436      37.08777756      -0.00000000  F      -0.00027650      -0.00069860      -0.00000000
W       37.99889999      38.68833167       1.59536233  F       0.00058956       0.00085709      -0.00000000
W       36.36012972      40.25998888       0.00000000  F       0.00056515       0.00025791      -0.00000000
W       37.94218951      41.85950457       1.59536233  F       0.00190529       0.00214054      -0.00000000
W       36.29768953      43.43134562      -0.00000000  F       0.00208853       0.00139859       0.00000000
W       37.87279278      45.02992814       1.59536233  F       0.00159662       0.00165028       0.00000000
W       36.22293002      46.60302034       0.00000000  F       0.00216117       0.00157370      -0.00000000
W       37.78911467      48.20117810       1.59536233  F       0.00045979       0.00066037       0.00000000
W       36.13531699      49.77684276       0.00000000  F       0.00166063       0.00076301      -0.00000000
W       37.69129832      51.37567783       1.59536233  F      -0.00078391      -0.00028096       0.00000000
W       36.03651190      52.95507406       0.00000000  F       0.00051134       0.00008752      -0.00000000
W       37.58258299      54.55613129       1.59536233  F      -0.00030326      -0.00011133      -0.00000000
W       35.93091425      56.13969002       0.00000000  F       0.00005460      -0.00016089      -0.00000000
W       40.65251248      57.76535054       1.59536233  F       0.00161799       0.00007300      -0.00000000
W       39.00238515      59.35204408       0.00000000  F       0.00038038      -0.00064607      -0.00000000
W       40.52955938      60.96344527       1.59536233  F      -0.00012489      -0.00142453       0.00000000
W       38.89126829      62.55268843      -0.00000000  F      -0.00026490      -0.00085890       0.00000000
W       40.41954364      64.16885704       1.59536233  F       0.00051518      -0.00109178       0.00000000
W       38.79314367      65.75863187       0.00000000  F      -0.00050405      -0.00051811      -0.00000000
W       40.32617490      67.37801782       1.59536233  F      -0.00031750      -0.00094179       0.00000000
W       38.70991610      68.96689279       0.00000000  F      -0.00068071       0.00047166      -0.00000000
W       40.24971596      70.58768632       1.59536233  F      -0.00053204       0.00007243       0.00000000
W       38.64139180      72.17513069       0.00000000  F      -0.00034240       0.00090850       0.00000000
W       40.18846099      73.79598098       1.59536233  F      -0.00034357       0.00087412       0.00000000
W       38.58648762      75.38188462      -0.00000000  F       0.00033763       0.00098339       0.00000000
W       40.14035748      77.00177423       1.59536233  F       0.00008468       0.00116946      -0.00000000
W       38.54284518      78.58656198       0.00000000  F       0.00092491       0.00021769      -0.00000000
W       40.10267785      80.20477084       1.59536233  F       0.00117080       0.00010295       0.00000000
W       38.50617191      81.79018499       0.00000000  F      -0.00037517       0.00095965       0.00000000
W       40.07140150      83.40627721       1.59536233  F      -0.00040320       0.00100712       0.00000000
W       38.46977532      84.99791173       0.00000000  T       0.00000000       0.00000000       0.00000000
W       40.03973608      86.61231066       1.59536233  T       0.00000000       0.00000000       0.00000000
W       38.44753270      88.19607649       0.00000000  T       0.00000000       0.00000000       0.00000000
W       40.02115682      89.80831740       1.59536233  T       0.00000000       0.00000000       0.00000000
W       38.42948709      91.39212237       0.00000000  T       0.00000000       0.00000000       0.00000000
W       40.00609471      93.00238256       1.59536233  T       0.00000000       0.00000000       0.00000000
W       38.41468902      94.58639719       0.00000000  T       0.00000000       0.00000000       0.00000000
W       39.99373351      96.19487839       1.59536233  T       0.00000000       0.00000000       0.00000000
W       41.38507076      16.43706443       1.59536233  T       0.00000000       0.00000000       0.00000000
W       39.77532719      18.02073617       0.00000000  T       0.00000000       0.00000000       0.00000000
W       41.37497935      19.62769164       1.59536233  T       0.00000000       0.00000000       0.00000000
W       39.76314534      21.20963825       0.00000000  T       0.00000000       0.00000000       0.00000000
W       41.36272791      22.81698461       1.59536233  T       0.00000000       0.00000000       0.00000000