1296
Lattice="121.73607734184546 0.0 0.0 0.0 115.32891537648517 0.0 0.0 0.0 3.2035809826801436" Properties=species:S:1:pos:R:3:fix_mask:L:1:forces:R:3 energy=-16212.470057063962 pbc="T T T"
W       15.36474260      48.51283754       1.60179049  T       0.00000000       0.00000000       0.00000000
W       15.31355805      51.70897590       1.60179049  T       0.00000000       0.00000000       0.00000000
W       15.26177952      54.90815778       1.60179049  T       0.00000000       0.00000000       0.00000000
W       18.41270502      58.11696485       1.60179049  T       0.00000000       0.00000000       0.00000000
W       18.35703864      61.32276581       1.60179049  T       0.00000000       0.00000000       0.00000000
W       18.30193790      64.53212910       1.60179049  T       0.00000000       0.00000000       0.00000000
W       18.73392817      38.95377033       1.60179049  T       0.00000000       0.00000000       0.00000000
W       18.68424804      42.14041406       1.60179049  T       0.00000000       0.00000000       0.00000000
W       17.04881486      43.72907094       0.00000000  T       0.00000000       0.00000000       0.00000000
W       18.63237267      45.32940589       1.60179049  T       0.00000000       0.00000000       0.00000000
W       16.99767582      46.92027225       0.00000000  T       0.00000000       0.00000000       0.00000000
W       18.57880043      48.52123597       1.60179049  T       0.00000000       0.00000000       0.00000000
W       16.94524019      50.11434631       0.00000000  T       0.00000000       0.00000000       0.00000000
W       18.52402301      51.71628458       1.60179049  T       0.00000000       0.00000000       0.00000000
W       16.89193790      53.31157123       0.00000000  T       0.00000000       0.00000000       0.00000000
W       18.46850958      54.91481331       1.60179049  T       0.00000000       0.00000000       0.00000000
W       16.83817715      56.51212170       0.00000000  T       0.00000000       0.00000000       0.00000000
W       21.61553475      58.12393019       1.60179049  T       0.00000000       0.00000000       0.00000000
W       19.98520629      59.72288129       0.00000000  T       0.00000000       0.00000000       0.00000000
W       21.55551823      61.33010170       1.60179049  T       0.00000000       0.00000000       0.00000000
W       19.92770275      62.93079223       0.00000000  T       0.00000000       0.00000000       0.00000000
W       21.49621357      64.54039948       1.60179049  T       0.00000000       0.00000000       0.00000000
W       19.87107556      66.14243232       0.00000000  T       0.00000000       0.00000000       0.00000000
W       21.43817301      67.75455235       1.60179049  T       0.00000000       0.00000000       0.00000000
W       19.81582491      69.35750410       0.00000000  T       0.00000000       0.00000000       0.00000000
W       21.38196989      70.97213854       1.60179049  T       0.00000000       0.00000000       0.00000000
W       21.32818618      74.19259601       1.60179049  T       0.00000000       0.00000000       0.00000000
W       22.00863034      35.78654606       1.60179049  T       0.00000000       0.00000000       0.00000000
W       20.37081062      37.36914544       0.00000000  T       0.00000000       0.00000000       0.00000000
W       21.95951231      38.96922944       1.60179049  T       0.00000000       0.00000000       0.00000000
W       20.32119236      40.55375087       0.00000000  T       0.00000000       0.00000000       0.00000000
W       21.90705313      42.15364032       1.60179049  T       0.00000000       0.00000000       0.00000000
W       20.26884540      43.74045667       0.00000000  T       0.00000000       0.00000000       0.00000000
W       21.85182511      45.34053879       1.60179049  T       0.00000000       0.00000000       0.00000000
W       20.21431439      46.92988186       0.00000000  T       0.00000000       0.00000000       0.00000000
W       21.79445024      48.53058205       1.60179049  T       0.00000000       0.00000000       0.00000000
W       20.15815746      50.12253277       0.00000000  T       0.00000000       0.00000000       0.00000000
W       21.73555184      51.72428507       1.60179049  T       0.00000000       0.00000000       0.00000000
W       20.10091612      53.31878273       0.00000000  T       0.00000000       0.00000000       0.00000000
W       21.67572591      54.92200326       1.60179049  T       0.00000000       0.00000000       0.00000000
W       20.04310311      56.51886631       0.00000000  T       0.00000000       0.00000000       0.00000000
W       24.81822433      58.13146759       1.60179049  T       0.00000000       0.00000000       0.00000000
W       23.18560880      59.73024736       0.00000000  T       0.00000000       0.00000000       0.00000000
W       24.75312211      61.33810969       1.60179049  T       0.00000000       0.00000000       0.00000000
W       23.12347805      62.93889778       0.00000000  T       0.00000000       0.00000000       0.00000000
W       24.68893298      64.54958512       1.60179049  T       0.00000000       0.00000000       0.00000000
W       23.06246052      66.15187040       0.00000000  T       0.00000000       0.00000000       0.00000000
W       24.62636645      67.76551717       1.60179049  T       0.00000000       0.00000000       0.00000000
W       23.00319307      69.36875783       0.00000000  T       0.00000000       0.00000000       0.00000000
W       24.56615865      70.98532249       1.60179049  T       0.00000000       0.00000000       0.00000000
W       22.94633062      72.58898197       0.00000000  T       0.00000000       0.00000000       0.00000000
W       24.50904648      74.20823178       1.60179049  T       0.00000000       0.00000000       0.00000000
W       22.89251542      75.81181788       0.00000000  T       0.00000000       0.00000000       0.00000000
W       24.45571167      77.43333768       1.60179049  T       0.00000000       0.00000000       0.00000000
W       22.84232529      79.03644062       0.00000000  T       0.00000000       0.00000000       0.00000000
W       24.40670876      80.65967158       1.60179049  T       0.00000000       0.00000000       0.00000000
W       25.32713065      29.44717687       1.60179049  T       0.00000000       0.00000000       0.00000000
W       23.69073549      31.02528009       0.00000000  T       0.00000000       0.00000000       0.00000000
W       25.28568233      32.62722934       1.60179049  T       0.00000000       0.00000000       0.00000000
W       23.64706305      34.20595034       0.00000000  T       0.00000000       0.00000000       0.00000000
W       25.23925462      35.80690636       1.60179049  T       0.00000000       0.00000000       0.00000000
W       23.59897988      37.38694479       0.00000000  T       0.00000000       0.00000000       0.00000000
W       25.18810109      38.98712991       1.60179049  T       0.00000000       0.00000000       0.00000000
W       23.54687866      40.56915053       0.00000000  T       0.00000000       0.00000000       0.00000000
W       25.13271707      42.16891842       1.60179049  T       0.00000000       0.00000000       0.00000000
W       23.49132273      43.75346828       0.00000000  T       0.00000000       0.00000000       0.00000000
W       25.07378266      45.35328020       1.60179049  T       0.00000000       0.00000000       0.00000000
W       23.43298195      46.94072682       0.00000000  T       0.00000000       0.00000000       0.00000000
W       25.01207971      48.54111226       1.60179049  T       0.00000000       0.00000000       0.00000000
W       23.37256446      50.13161616       0.00000000  T       0.00000000       0.00000000       0.00000000
W       24.94329912      51.73354936       1.60179049  F       0.00006999      -0.00044233       0.00000000
W       23.31076478      53.32664909       0.00000000  T       0.00000000       0.00000000       0.00000000
W       24.87708570      54.93188040       1.60179049  F       0.00042291       0.00040671       0.00000000
W       23.24823934      56.52614814       0.00000000  T       0.00000000       0.00000000       0.00000000
W       28.01627582      58.13990131       1.60179049  F      -0.00057975       0.00083407      -0.00000000
W       26.38543242      59.73826992       0.00000000  T       0.00000000       0.00000000       0.00000000
W       27.94563312      61.34807278       1.60179049  F      -0.00050590       0.00016719       0.00000000
W       26.31787290      62.94786472       0.00000000  T       0.00000000       0.00000000       0.00000000
W       27.87967686      64.55991909       1.60179049  T       0.00000000       0.00000000       0.00000000
W       26.25175715      66.16252233       0.00000000  T       0.00000000       0.00000000       0.00000000
W       27.81187845      67.77810282       1.60179049  T       0.00000000       0.00000000       0.00000000
W       26.18791263      69.38167006       0.00000000  T       0.00000000       0.00000000       0.00000000
W       27.74717418      71.00065438       1.60179049  T       0.00000000       0.00000000       0.00000000
W       26.12718292      72.60450215       0.00000000  T       0.00000000       0.00000000       0.00000000
W       27.68650641      74.22649812       1.60179049  T       0.00000000       0.00000000       0.00000000
W       26.07037056      75.83002649       0.00000000  T       0.00000000       0.00000000       0.00000000
W       27.63069783      77.45440288       1.60179049  T       0.00000000       0.00000000       0.00000000
W       26.01815157      79.05714966       0.00000000  T       0.00000000       0.00000000       0.00000000
W       27.58034185      80.68311587       1.60179049  T       0.00000000       0.00000000       0.00000000
W       25.97099093      82.28478954       0.00000000  T       0.00000000       0.00000000       0.00000000
W       27.53572612      83.91150627       1.60179049  T       0.00000000       0.00000000       0.00000000
W       28.59664969      26.29362963       1.60179049  T       0.00000000       0.00000000       0.00000000
W       26.96261156      27.87011522       0.00000000  T       0.00000000       0.00000000       0.00000000
W       28.56132409      29.47423440       1.60179049  T       0.00000000       0.00000000       0.00000000
W       26.92396646      31.05012387       0.00000000  T       0.00000000       0.00000000       0.00000000
W       28.52024216      32.65296422       1.60179049  T       0.00000000       0.00000000       0.00000000
W       26.87987108      34.22900180       0.00000000  T       0.00000000       0.00000000       0.00000000
W       28.47317454      35.83056714       1.60179049  T       0.00000000       0.00000000       0.00000000
W       26.83036804      37.40763053       0.00000000  T       0.00000000       0.00000000       0.00000000
W       28.42022420      39.00809650       1.60179049  T       0.00000000       0.00000000       0.00000000
W       26.77580334      40.58709140       0.00000000  T       0.00000000       0.00000000       0.00000000
W       28.35719430      42.18337074       1.60179049  F       0.00084088      -0.00072257       0.00000000
W       26.71680023      43.76855429       0.00000000  T       0.00000000       0.00000000       0.00000000
W       28.29463473      45.36539325       1.60179049  F       0.00012149       0.00060951      -0.00000000
W       26.64981887      46.95118776      -0.00000000  F      -0.00015933      -0.00003213       0.00000000
W       28.22609436      48.55173728       1.60179049  F       0.00057390       0.00016224      -0.00000000
W       26.58317132      50.14205304       0.00000000  F      -0.00066437      -0.00098499      -0.00000000
W       28.15472781      51.74334105       1.60179049  F       0.00123402      -0.00003861      -0.00000000
W       26.51482352      53.33665029       0.00000000  F      -0.00075772      -0.00013972      -0.00000000
W       28.08404948      54.93881475       1.60179049  F       0.00014242      -0.00063221       0.00000000
W       26.44834550      56.53532090       0.00000000  F      -0.00031683       0.00089130      -0.00000000
W       31.21575238      58.14781883       1.60179049  F      -0.00003228      -0.00060943      -0.00000000
W       29.57909713      59.74727549       0.00000000  F      -0.00082994      -0.00073650       0.00000000
W       31.13752900      61.35672032       1.60179049  F       0.00188006       0.00070554      -0.00000000
W       29.50572347      62.95861501      -0.00000000  F      -0.00165287       0.00007223       0.00000000
W       31.06104280      64.57313423       1.60179049  F       0.00159928       0.00116038      -0.00000000
W       29.43331765      66.17697438       0.00000000  F      -0.00197183       0.00136238      -0.00000000
W       30.98679944      67.79581867       1.60179049  F      -0.00016195       0.00118315      -0.00000000
W       29.36340551      69.39984569       0.00000000  F      -0.00021556       0.00125486      -0.00000000
W       30.91861043      71.02145551       1.60179049  F      -0.00164998       0.00056430       0.00000000
W       29.30436646      72.62275031       0.00000000  T       0.00000000       0.00000000       0.00000000
W       30.85989860      74.24813115       1.60179049  T       0.00000000       0.00000000       0.00000000
W       29.24453626      75.85140535       0.00000000  T       0.00000000       0.00000000       0.00000000
W       30.80187754      77.47914839       1.60179049  T       0.00000000       0.00000000       0.00000000
W       29.19058389      79.08124687       0.00000000  T       0.00000000       0.00000000       0.00000000
W       30.75074174      80.71024829       1.60179049  T       0.00000000       0.00000000       0.00000000
W       29.14291086      82.31093459       0.00000000  T       0.00000000       0.00000000       0.00000000
W       30.70657349      83.94012697       1.60179049  T       0.00000000       0.00000000       0.00000000
W       29.10153139      85.53939038       0.00000000  T       0.00000000       0.00000000       0.00000000
W       30.66903464      87.16788463       1.60179049  T       0.00000000       0.00000000       0.00000000
W       31.85850941      23.14021269       1.60179049  T       0.00000000       0.00000000       0.00000000
W       30.22875179      24.71718283       0.00000000  T       0.00000000       0.00000000       0.00000000
W       31.83083779      26.32389780       1.60179049  T       0.00000000       0.00000000       0.00000000
W       30.19714030      27.89903245       0.00000000  T       0.00000000       0.00000000       0.00000000
W       31.79748405      29.50456990       1.60179049  T       0.00000000       0.00000000       0.00000000
W       30.15968651      31.07835432       0.00000000  T       0.00000000       0.00000000       0.00000000
W       31.75763658      32.68246211       1.60179049  T       0.00000000       0.00000000       0.00000000
W       30.11586008      34.25567137       0.00000000  T       0.00000000       0.00000000       0.00000000
W       31.71069917      35.85821264       1.60179049  T       0.00000000       0.00000000       0.00000000
W       30.06543673      37.43189019       0.00000000  T       0.00000000       0.00000000       0.00000000
W       31.65323787      39.02939377       1.60179049  F       0.00057188       0.00032690       0.00000000
W       30.00466998      40.60484446       0.00000000  F       0.00052802       0.00003561      -0.00000000
W       31.58933236      42.20363184       1.60179049  F       0.00004584      -0.00007363      -0.00000000
W       29.94055549      43.78206886      -0.00000000  F       0.00062230       0.00059636       0.00000000
W       31.52063710      45.38172675       1.60179049  F      -0.00016778      -0.00035380      -0.00000000
W       29.87168939      46.96529278      -0.00000000  F       0.00048458      -0.00020361      -0.00000000
W       31.44750286      48.56465755       1.60179049  F      -0.00008339       0.00012634       0.00000000
W       29.79935829      50.15246655      -0.00000000  F       0.00082695      -0.00015374       0.00000000
W       31.37110979      51.75263067       1.60179049  F      -0.00070187      -0.00097630       0.00000000
W       29.72578657      53.34451038      -0.00000000  F       0.00004068      -0.00124451       0.00000000
W       31.29359737      54.94651070       1.60179049  F      -0.00006987      -0.00029854       0.00000000
W       29.65222609      56.54195753      -0.00000000  F       0.00017118      -0.00024849       0.00000000
W       34.41591019      58.15780505       1.60179049  F      -0.00205611       0.00058675       0.00000000
W       32.77473316      59.75637034       0.00000000  F      -0.00113358       0.00050838      -0.00000000
W       34.32823623      61.36873852       1.60179049  F      -0.00110534       0.00097664       0.00000000
W       32.69241832      62.97026814       0.00000000  F      -0.00035346       0.00078375      -0.00000000
W       34.24241634      64.58824961       1.60179049  F      -0.00095640       0.00067801       0.00000000
W       32.61210468      66.19161410      -0.00000000  F       0.00049760       0.00099835       0.00000000
W       34.16082699      67.81447860       1.60179049  F       0.00067645       0.00136471      -0.00000000
W       32.53703630      69.41816502       0.00000000  F       0.00181362       0.00047223       0.00000000
W       34.08627401      71.04571547       1.60179049  F       0.00087007      -0.00004905       0.00000000
W       32.47044718      72.64859140       0.00000000  F       0.00042705       0.00046898       0.00000000
W       34.01959639      74.28103103       1.60179049  F       0.00084289      -0.00071078      -0.00000000
W       32.40689771      75.88143230      -0.00000000  F       0.00008622       0.00115412      -0.00000000
W       33.96145727      77.51349888       1.60179049  F       0.00030734       0.00010238       0.00000000
W       32.35933923      79.10941730       0.00000000  T       0.00000000       0.00000000       0.00000000
W       33.91789518      80.74162641       1.60179049  T       0.00000000       0.00000000       0.00000000
W       32.31200370      82.34087653       0.00000000  T       0.00000000       0.00000000       0.00000000
W       33.87524342      83.97239600       1.60179049  T       0.00000000       0.00000000       0.00000000
W       32.27206754      85.57005431       0.00000000  T       0.00000000       0.00000000       0.00000000
W       33.84007071      87.19997113       1.60179049  T       0.00000000       0.00000000       0.00000000
W       32.23880985      88.79634939       0.00000000  T       0.00000000       0.00000000       0.00000000
W       33.81131367      90.42412626       1.60179049  T       0.00000000       0.00000000       0.00000000
W       33.48563781      21.56218580       0.00000000  T       0.00000000       0.00000000       0.00000000
W       35.09012332      23.17125443       1.60179049  T       0.00000000       0.00000000       0.00000000
W       33.46194043      24.74817750       0.00000000  T       0.00000000       0.00000000       0.00000000
W       35.06553567      26.35655065       1.60179049  T       0.00000000       0.00000000       0.00000000
W       33.43295360      27.93089011       0.00000000  T       0.00000000       0.00000000       0.00000000
W       35.03510407      29.53819286       1.60179049  T       0.00000000       0.00000000       0.00000000
W       33.39765486      31.11025055       0.00000000  T       0.00000000       0.00000000       0.00000000
W       34.99762016      32.71608336       1.60179049  T       0.00000000       0.00000000       0.00000000
W       33.35509661      34.28654052       0.00000000  T       0.00000000       0.00000000       0.00000000
W       34.95043853      35.88700276       1.60179049  F       0.00063367       0.00034226       0.00000000
W       33.30225091      37.45697601       0.00000000  F       0.00070368       0.00037430      -0.00000000
W       34.89390645      39.05761959       1.60179049  F      -0.00071310      -0.00032099       0.00000000
W       33.24123340      40.62883370      -0.00000000  F      -0.00063142      -0.00005241      -0.00000000
W       34.82748778      42.22814938       1.60179049  F      -0.00012109      -0.00014970       0.00000000
W       33.17277732      43.80262814      -0.00000000  F      -0.00049182      -0.00013913       0.00000000
W       34.75338968      45.40114390       1.60179049  F       0.00052618       0.00041891      -0.00000000
W       33.09851676      46.98051075      -0.00000000  F       0.00063797       0.00053272       0.00000000
W       34.67373744      48.57902524       1.60179049  F      -0.00086855       0.00003996       0.00000000
W       33.02036888      50.16390121      -0.00000000  F      -0.00051234      -0.00052897       0.00000000
W       34.58992181      51.76355114       1.60179049  F      -0.00154865       0.00041594      -0.00000000
W       32.93955349      53.35353013       0.00000000  F      -0.00020996      -0.00027806      -0.00000000
W       34.50356047      54.95621803       1.60179049  F      -0.00206878      -0.00028286      -0.00000000
W       32.85734012      56.55074796      -0.00000000  F      -0.00064416       0.00002653       0.00000000
W       37.61392683      58.17054712       1.60179049  F       0.00045929       0.00197725      -0.00000000
W       35.96860992      59.76872476      -0.00000000  F      -0.00055387       0.00131672       0.00000000
W       37.51517964      61.38451644       1.60179049  F      -0.00163607      -0.00065395       0.00000000
W       35.87629879      62.98580437      -0.00000000  F       0.00037039       0.00075052      -0.00000000
W       37.41927014      64.60829895       1.60179049  F      -0.00066324       0.00050211       0.00000000
W       35.78763300      66.21123560       0.00000000  F       0.00197826       0.00101227      -0.00000000
W       37.32945039      67.84013962       1.60179049  F      -0.00101597      -0.00096181       0.00000000
W       35.70588327      69.44305755       0.00000000  F       0.00008986      -0.00100422      -0.00000000
W       37.24834815      71.07714743       1.60179049  F       0.00149773       0.00082145       0.00000000
W       35.63243224      72.67897155      -0.00000000  F       0.00069515       0.00003703       0.00000000
W       37.17868335      74.31598776       1.60179049  F      -0.00057895      -0.00003354       0.00000000
W       35.56859003      75.91536398      -0.00000000  F       0.00061165       0.00074761      -0.00000000
W       37.12093240      77.55253364       1.60179049  F      -0.00068545       0.00069394       0.00000000
W       35.51710871      79.14823060       0.00000000  F       0.00049724      -0.00073171      -0.00000000
W       37.07554446      80.78421439       1.60179049  F       0.00076244      -0.00048176       0.00000000
W       35.47858851      82.37492446       0.00000000  T       0.00000000       0.00000000       0.00000000
W       37.04239089      84.00827407       1.60179049  T       0.00000000       0.00000000       0.00000000
W       35.44126830      85.60393108       0.00000000  T       0.00000000       0.00000000       0.00000000
W       37.01071008      87.23457175       1.60179049  T       0.00000000       0.00000000       0.00000000
W       35.41111782      88.82910669       0.00000000  T       0.00000000       0.00000000       0.00000000
W       36.98554180      90.45675464       1.60179049  T       0.00000000       0.00000000       0.00000000
W       35.38683976      92.05060734       0.00000000  T       0.00000000       0.00000000       0.00000000
W       36.96550174      93.67529332       1.60179049  T       0.00000000       0.00000000       0.00000000
W       38.33730012      20.01185705       1.60179049  T       0.00000000       0.00000000       0.00000000
W       36.71523673      21.59260855       0.00000000  T       0.00000000       0.00000000       0.00000000
W       38.32076296      23.20314004       1.60179049  T       0.00000000       0.00000000       0.00000000
W       36.69485759      24.78083242       0.00000000  T       0.00000000       0.00000000       0.00000000
W       38.29987544      26.39098738       1.60179049  T       0.00000000       0.00000000       0.00000000
W       36.66932088      27.96538664       0.00000000  T       0.00000000       0.00000000       0.00000000
W       38.27332745      29.57475112       1.60179049  T       0.00000000       0.00000000       0.00000000
W       36.63729520      31.14584544       0.00000000  T       0.00000000       0.00000000       0.00000000
W       38.23943726      32.75069815       1.60179049  F       0.00043934       0.00012711      -0.00000000
W       36.59663464      34.31861187       0.00000000  F       0.00071962       0.00022082       0.00000000
W       38.19639981      35.92368420       1.60179049  F      -0.00065229      -0.00088495      -0.00000000
W       36.54622346      37.48952992      -0.00000000  F      -0.00075149      -0.00067649       0.00000000
W       38.14059098      39.09211035       1.60179049  F      -0.00021774      -0.00062293      -0.00000000
W       36.48404313      40.65809621      -0.00000000  F      -0.00059909      -0.00033902      -0.00000000
W       38.07209459      42.25798895       1.60179049  F       0.00071013       0.00084881       0.00000000
W       36.41155137      43.82692603       0.00000000  F       0.00064204       0.00032916       0.00000000
W       37.99287481      45.42519617       1.60179049  F      -0.00001186       0.00039601      -0.00000000
W       36.33117064      46.99922311       0.00000000  F       0.00027577       0.00033143       0.00000000
W       37.90518860      48.59738769       1.60179049  F      -0.00053938       0.00036954      -0.00000000
W       36.24488826      50.17772135       0.00000000  F      -0.00012409       0.00078468      -0.00000000
W       37.81125547      51.77760177       1.60179049  F      -0.00048253       0.00088966       0.00000000
W       36.15462628      53.36466227      -0.00000000  F      -0.00134100       0.00087724       0.00000000
W       37.71341343      54.96823644       1.60179049  F      -0.00044808       0.00099555      -0.00000000
W       36.06205328      56.56154141      -0.00000000  F      -0.00221318       0.00036700       0.00000000
W       40.80987677      58.18651692       1.60179049  F      -0.00000402       0.00011298       0.00000000
W       39.15918048      59.78442315      -0.00000000  F      -0.00059703      -0.00093587      -0.00000000
W       40.69697142      61.40355025       1.60179049  F       0.00104032       0.00079910       0.00000000
W       39.05523177      63.00569496       0.00000000  F       0.00041541       0.00012933      -0.00000000
W       40.58899827      64.63369713       1.60179049  F      -0.00033114      -0.00004187      -0.00000000
W       38.95684586      66.23707482      -0.00000000  F      -0.00092884      -0.00080723       0.00000000
W       40.48970225      67.87317734       1.60179049  F       0.00022298       0.00117644      -0.00000000
W       38.86726553      69.47523164      -0.00000000  F       0.00058244       0.00191648       0.00000000
W       40.40340152      71.11721174       1.60179049  F      -0.00087797      -0.00118887      -0.00000000
W       38.78987249      72.71653504       0.00000000  F      -0.00105189      -0.00053870      -0.00000000
W       40.33258843      74.35991975       1.60179049  F       0.00155730       0.00163072      -0.00000000
W       38.72615515      75.95615296      -0.00000000  F       0.00049696       0.00070063       0.00000000
W       40.27758884      77.59806337       1.60179049  F      -0.00045411       0.00020289      -0.00000000
W       38.67592389      79.19127949       0.00000000  F      -0.00008881       0.00088153      -0.00000000
W       40.23550959      80.82988668       1.60179049  F      -0.00036118       0.00042728      -0.00000000
W       38.63756871      82.42024441       0.00000000  F       0.00068504      -0.00064498      -0.00000000
W       40.20394695      84.05485405       1.60179049  F       0.00110065      -0.00053238      -0.00000000
W       38.61005557      85.64059052       0.00000000  T       0.00000000       0.00000000       0.00000000
W       40.18201460      87.27089851       1.60179049  T       0.00000000       0.00000000       0.00000000
W       38.58394746      88.86349130       0.00000000  T       0.00000000       0.00000000       0.00000000
W       40.16108328      90.49004118       1.60179049  T       0.00000000       0.00000000       0.00000000
W       38.56345381      92.08234693       0.00000000  T       0.00000000       0.00000000       0.00000000
W       40.14476343      93.70549480       1.60179049  T       0.00000000       0.00000000       0.00000000
W       38.54724601      95.29782806       0.00000000  T       0.00000000       0.00000000       0.00000000
W       40.13188631      96.91800626       1.60179049  T       0.00000000       0.00000000       0.00000000
W       41.57300879      16.84324919       1.60179049  T       0.00000000       0.00000000       0.00000000
W       39.95647225      18.42876778       0.00000000  T       0.00000000       0.00000000       0.00000000
W       41.56268287      20.04032727       1.60179049  T       0.00000000       0.00000000       0.00000000
W       39.94330065      21.62305081       0.00000000  T       0.00000000       0.00000000       0.00000000
W       41.54960848      23.23488978       1.60179049  T       0.00000000       0.00000000       0.00000000
W       39.92660771      24.81431024       0.00000000  T       0.00000000       0.00000000       0.00000000
W       41.53280910      26.42620058       1.60179049  T       0.00000000       0.00000000       0.00000000
W       39.90521813      28.00179999       0.00000000  T       0.00000000       0.00000000       0.00000000