1820
Lattice="114.57639849475322 0.0 0.0 0.0 117.0256364904931 0.0 0.0 0.0 4.5009860188651185" Properties=species:S:1:pos:R:3:fix_mask:L:1:forces:R:3 energy=-19168.437194041966 pbc="T T T"
Mo      11.23945682      52.59645575       2.25049301  T       0.00000000       0.00000000       0.00000000
Mo      11.20158607      54.84353235      -0.00000000  T       0.00000000       0.00000000       0.00000000
Mo      11.16347935      57.09216932       2.25049301  T       0.00000000       0.00000000       0.00000000
Mo      14.30685944      59.34780161      -0.00000000  T       0.00000000       0.00000000       0.00000000
Mo      14.26602477      61.59980849       2.25049301  T       0.00000000       0.00000000       0.00000000
Mo      14.22551196      63.85360319      -0.00000000  T       0.00000000       0.00000000       0.00000000
Mo      14.62064514      41.39331713      -0.00000000  T       0.00000000       0.00000000       0.00000000
Mo      14.58455901      43.63252919       2.25049301  T       0.00000000       0.00000000       0.00000000
Mo      12.94835152      45.86830370       2.25049301  T       0.00000000       0.00000000       0.00000000
Mo      14.54718769      45.87290352      -0.00000000  T       0.00000000       0.00000000       0.00000000
Mo      12.91106548      48.11058190       0.00000000  T       0.00000000       0.00000000       0.00000000
Mo      14.50871563      48.11462094       2.25049301  T       0.00000000       0.00000000       0.00000000
Mo      12.87296592      50.35427703       2.25049301  T       0.00000000       0.00000000       0.00000000
Mo      14.46933849      50.35783811      -0.00000000  T       0.00000000       0.00000000       0.00000000
Mo      12.83423498      52.59950072       0.00000000  T       0.00000000       0.00000000       0.00000000
Mo      14.42925859      52.60268345       2.25049301  T       0.00000000       0.00000000       0.00000000
Mo      12.79505728      54.84633763       2.25049301  T       0.00000000       0.00000000       0.00000000
Mo      14.38868139      54.84925455      -0.00000000  T       0.00000000       0.00000000       0.00000000
Mo      12.75561799      57.09484428       0.00000000  T       0.00000000       0.00000000       0.00000000
Mo      14.34781312      57.09761658       2.25049301  T       0.00000000       0.00000000       0.00000000
Mo      15.89757133      59.35065743       2.25049301  T       0.00000000       0.00000000       0.00000000
Mo      17.48823189      59.35362397      -0.00000000  T       0.00000000       0.00000000       0.00000000
Mo      15.85520493      61.60278273       0.00000000  T       0.00000000       0.00000000       0.00000000
Mo      17.44421480      61.60588200       2.25049301  T       0.00000000       0.00000000       0.00000000
Mo      15.81319839      63.85683001       2.25049301  T       0.00000000       0.00000000       0.00000000
Mo      17.40060177      63.86021172      -0.00000000  T       0.00000000       0.00000000       0.00000000
Mo      15.77177571      66.11272260       0.00000000  T       0.00000000       0.00000000       0.00000000
Mo      17.35764382      66.11652376       2.25049301  T       0.00000000       0.00000000       0.00000000
Mo      15.73115704      68.37034820       2.25049301  T       0.00000000       0.00000000       0.00000000
Mo      17.31558714      68.37468751      -0.00000000  T       0.00000000       0.00000000       0.00000000
Mo      15.69155619      70.62956134       0.00000000  T       0.00000000       0.00000000       0.00000000
Mo      17.27466998      70.63453423       2.25049301  T       0.00000000       0.00000000       0.00000000
Mo      17.23511809      72.89586173      -0.00000000  T       0.00000000       0.00000000       0.00000000
Mo      17.19713878      75.15844076       2.25049301  T       0.00000000       0.00000000       0.00000000
Mo      17.92711508      34.69804539       2.25049301  T       0.00000000       0.00000000       0.00000000
Mo      17.89486337      36.93363757      -0.00000000  T       0.00000000       0.00000000       0.00000000
Mo      16.25756956      39.16210431       0.00000000  T       0.00000000       0.00000000       0.00000000
Mo      17.86053113      39.16966459       2.25049301  T       0.00000000       0.00000000       0.00000000
Mo      16.22211289      41.39962246       2.25049301  T       0.00000000       0.00000000       0.00000000
Mo      17.82424120      41.40639614      -0.00000000  T       0.00000000       0.00000000       0.00000000
Mo      16.18504370      43.63811349       0.00000000  T       0.00000000       0.00000000       0.00000000
Mo      17.78615665      43.64410289       2.25049301  T       0.00000000       0.00000000       0.00000000
Mo      16.14654403      45.87780495       2.25049301  T       0.00000000       0.00000000       0.00000000
Mo      17.74647437      45.88304498      -0.00000000  T       0.00000000       0.00000000       0.00000000
Mo      16.10681661      48.11890437       0.00000000  T       0.00000000       0.00000000       0.00000000
Mo      17.70541739      48.12346150       2.25049301  T       0.00000000       0.00000000       0.00000000
Mo      16.06607838      50.36159235       2.25049301  T       0.00000000       0.00000000       0.00000000
Mo      17.66322688      50.36556171      -0.00000000  T       0.00000000       0.00000000       0.00000000
Mo      16.02455483      52.60601744       0.00000000  T       0.00000000       0.00000000       0.00000000
Mo      17.62015503      52.60951828       2.25049301  T       0.00000000       0.00000000       0.00000000
Mo      15.98247550      54.85229268       2.25049301  T       0.00000000       0.00000000       0.00000000
Mo      17.57645937      54.85546293      -0.00000000  T       0.00000000       0.00000000       0.00000000
Mo      15.94007101      57.10049362       0.00000000  T       0.00000000       0.00000000       0.00000000
Mo      17.53239891      57.10348372       2.25049301  T       0.00000000       0.00000000       0.00000000
Mo      19.07883468      59.35671017       2.25049301  T       0.00000000       0.00000000       0.00000000
Mo      20.66937209      59.35992618      -0.00000000  T       0.00000000       0.00000000       0.00000000
Mo      19.03303356      61.60911766       0.00000000  T       0.00000000       0.00000000       0.00000000
Mo      20.62163687      61.61250274       2.25049301  T       0.00000000       0.00000000       0.00000000
Mo      18.98768824      63.86376451       2.25049301  T       0.00000000       0.00000000       0.00000000
Mo      20.57441837      63.86750731      -0.00000000  T       0.00000000       0.00000000       0.00000000
Mo      18.94308123      66.12054598       0.00000000  T       0.00000000       0.00000000       0.00000000
Mo      20.52803607      66.12481629       2.25049301  T       0.00000000       0.00000000       0.00000000
Mo      18.89948898      68.37930927       2.25049301  T       0.00000000       0.00000000       0.00000000
Mo      20.48280171      68.38424981      -0.00000000  T       0.00000000       0.00000000       0.00000000
Mo      18.85717786      70.63985758       0.00000000  T       0.00000000       0.00000000       0.00000000
Mo      20.43901416      70.64557709       2.25049301  T       0.00000000       0.00000000       0.00000000
Mo      18.81639832      72.90195620       2.25049301  T       0.00000000       0.00000000       0.00000000
Mo      20.39695180      72.90852431      -0.00000000  T       0.00000000       0.00000000       0.00000000
Mo      18.77737746      75.16534072       0.00000000  T       0.00000000       0.00000000       0.00000000
Mo      20.35686324      75.17278533       2.25049301  T       0.00000000       0.00000000       0.00000000
Mo      18.74031101      77.42972737       2.25049301  T       0.00000000       0.00000000       0.00000000
Mo      20.31895738      77.43803505      -0.00000000  T       0.00000000       0.00000000       0.00000000
Mo      20.28339481      79.70394427       2.25049301  T       0.00000000       0.00000000       0.00000000
Mo      20.25028162      81.97019483      -0.00000000  T       0.00000000       0.00000000       0.00000000
Mo      21.19549581      30.24946023       2.25049301  T       0.00000000       0.00000000       0.00000000
Mo      19.56212377      32.47292725       2.25049301  T       0.00000000       0.00000000       0.00000000
Mo      21.16764494      32.48393481      -0.00000000  T       0.00000000       0.00000000       0.00000000
Mo      19.53182659      34.70771587       0.00000000  T       0.00000000       0.00000000       0.00000000
Mo      21.13722110      34.71809962       2.25049301  T       0.00000000       0.00000000       0.00000000
Mo      19.49916775      36.94258243       2.25049301  T       0.00000000       0.00000000       0.00000000
Mo      21.10421459      36.95222075      -0.00000000  T       0.00000000       0.00000000       0.00000000
Mo      19.46421502      39.17780862       0.00000000  T       0.00000000       0.00000000       0.00000000
Mo      21.06867654      39.18660445       2.25049301  T       0.00000000       0.00000000       0.00000000
Mo      19.42708910      41.41369515       2.25049301  T       0.00000000       0.00000000       0.00000000
Mo      21.03072116      41.42158513      -0.00000000  T       0.00000000       0.00000000       0.00000000
Mo      19.38795994      43.65054848       0.00000000  T       0.00000000       0.00000000       0.00000000
Mo      20.99052302      43.65750988       2.25049301  T       0.00000000       0.00000000       0.00000000
Mo      19.34703979      45.88866682       2.25049301  T       0.00000000       0.00000000       0.00000000
Mo      20.94830971      45.89472134      -0.00000000  T       0.00000000       0.00000000       0.00000000
Mo      19.30457407      48.12832675       0.00000000  T       0.00000000       0.00000000       0.00000000
Mo      20.90435118      48.13354074       2.25049301  T       0.00000000       0.00000000       0.00000000
Mo      19.26083160      50.36977188       2.25049301  T       0.00000000       0.00000000       0.00000000
Mo      20.85894773      50.37425317      -0.00000000  T       0.00000000       0.00000000       0.00000000
Mo      19.21609549      52.61320411       0.00000000  T       0.00000000       0.00000000       0.00000000
Mo      20.81241850      52.61709612       2.25049301  T       0.00000000       0.00000000       0.00000000
Mo      19.17065595      54.85877778       2.25049301  T       0.00000000       0.00000000       0.00000000
Mo      20.76509203      54.86225161      -0.00000000  T       0.00000000       0.00000000       0.00000000
Mo      19.12480521      57.10659621       0.00000000  T       0.00000000       0.00000000       0.00000000
Mo      20.71729974      57.10984165       2.25049301  T       0.00000000       0.00000000       0.00000000
Mo      22.25983516      59.36328345       2.25049301  T       0.00000000       0.00000000       0.00000000
Mo      23.85021324      59.36679504      -0.00000000  T       0.00000000       0.00000000       0.00000000
Mo      22.20999609      61.61605227       0.00000000  T       0.00000000       0.00000000       0.00000000
Mo      23.79807731      61.61978374       2.25049301  T       0.00000000       0.00000000       0.00000000
Mo      22.16074598      63.87146229       2.25049301  T       0.00000000       0.00000000       0.00000000
Mo      23.74661666      63.87565573      -0.00000000  T       0.00000000       0.00000000       0.00000000
Mo      22.11244794      66.12936663       0.00000000  T       0.00000000       0.00000000       0.00000000
Mo      23.69624627      66.13423516       2.25049301  T       0.00000000       0.00000000       0.00000000
Mo      22.06545518      68.38955219       2.25049301  T       0.00000000       0.00000000       0.00000000
Mo      23.64736826      68.39526771      -0.00000000  T       0.00000000       0.00000000       0.00000000
Mo      22.02010418      70.65174663       0.00000000  T       0.00000000       0.00000000       0.00000000
Mo      23.60036282      70.65842998       2.25049301  T       0.00000000       0.00000000       0.00000000
Mo      21.97670487      72.91562889       2.25049301  T       0.00000000       0.00000000       0.00000000
Mo      23.55557534      72.92334356      -0.00000000  T       0.00000000       0.00000000       0.00000000
Mo      21.93552882      75.18084327       0.00000000  T       0.00000000       0.00000000       0.00000000
Mo      23.51330142      75.18959361       2.25049301  T       0.00000000       0.00000000       0.00000000
Mo      21.89679724      77.44701654       2.25049301  T       0.00000000       0.00000000       0.00000000
Mo      23.47377243      77.45675118      -0.00000000  T       0.00000000       0.00000000       0.00000000
Mo      21.86067111      79.71377677       0.00000000  T       0.00000000       0.00000000       0.00000000
Mo      23.43714453      79.72439668       2.25049301  T       0.00000000       0.00000000       0.00000000
Mo      21.82724513      81.98077155       2.25049301  T       0.00000000       0.00000000       0.00000000
Mo      23.40349355      81.99214185      -0.00000000  T       0.00000000       0.00000000       0.00000000
Mo      21.79654702      84.24768369       0.00000000  T       0.00000000       0.00000000       0.00000000
Mo      23.37281685      84.25964717       2.25049301  T       0.00000000       0.00000000       0.00000000
Mo      23.34504143      86.52663309      -0.00000000  T       0.00000000       0.00000000       0.00000000
Mo      24.43242259      28.04017452      -0.00000000  T       0.00000000       0.00000000       0.00000000
Mo      22.80145231      30.26168222       0.00000000  T       0.00000000       0.00000000       0.00000000
Mo      24.40789324      30.27466620       2.25049301  T       0.00000000       0.00000000       0.00000000
Mo      22.77377720      32.49570615       2.25049301  T       0.00000000       0.00000000       0.00000000
Mo      24.38051769      32.50829376      -0.00000000  T       0.00000000       0.00000000       0.00000000
Mo      22.74332249      34.72926147       0.00000000  T       0.00000000       0.00000000       0.00000000
Mo      24.35014836      34.74126938       2.25049301  T       0.00000000       0.00000000       0.00000000
Mo      22.71004565      36.96262568       2.25049301  T       0.00000000       0.00000000       0.00000000
Mo      24.31670003      36.97387711      -0.00000000  T       0.00000000       0.00000000       0.00000000
Mo      22.67397351      39.19612899       0.00000000  T       0.00000000       0.00000000       0.00000000
Mo      24.28016529      39.20646886       2.25049301  T       0.00000000       0.00000000       0.00000000
Mo      22.63520767      41.43014176       2.25049301  T       0.00000000       0.00000000       0.00000000
Mo      24.24062453      41.43945232      -0.00000000  T       0.00000000       0.00000000       0.00000000
Mo      22.59392356      43.66505684       0.00000000  T       0.00000000       0.00000000       0.00000000
Mo      24.19824819      43.67327120       2.25049301  T       0.00000000       0.00000000       0.00000000
Mo      22.55036322      45.90126864       2.25049301  T       0.00000000       0.00000000       0.00000000
Mo      24.14955447      45.90958628       0.00000000  F      -0.00058763      -0.00011282      -0.00000000
Mo      22.50109528      48.14008597      -0.00000000  F      -0.00075495      -0.00028059       0.00000000
Mo      24.10183330      48.14696481       2.25049301  F      -0.00011251       0.00007880      -0.00000000
Mo      22.45488462      50.38047549       2.25049301  F      -0.00057706      -0.00026987      -0.00000000
Mo      24.05316864      50.38583593       0.00000000  F       0.00010120      -0.00002560      -0.00000000
Mo      22.40706324      52.62245226      -0.00000000  F      -0.00058106      -0.00014942       0.00000000
Mo      24.00324377      52.62746834       2.25049301  F       0.00019978       0.00001235      -0.00000000
Mo      22.35778418      54.86705201       2.25049301  F      -0.00045976      -0.00012498      -0.00000000
Mo      23.95215008      54.87138469       0.00000000  F       0.00004261      -0.00005034      -0.00000000
Mo      22.30870067      57.11424997       0.00000000  F      -0.00033647       0.00007613      -0.00000000
Mo      23.90060142      57.11790233       2.25049301  F      -0.00004943      -0.00014273      -0.00000000
Mo      25.43858666      59.37213743       2.25049301  F       0.00033177      -0.00022056       0.00000000
Mo      27.02763859      59.37720643      -0.00000000  F       0.00006064       0.00018071       0.00000000
Mo      25.38378231      61.62519976      -0.00000000  F       0.00049832      -0.00000089       0.00000000
Mo      26.97028471      61.63088500       2.25049301  F       0.00004239       0.00025091      -0.00000000
Mo      25.32965521      63.88155000       2.25049301  F       0.00043031       0.00010317      -0.00000000
Mo      26.91352989      63.88785906       0.00000000  F       0.00010913       0.00038465      -0.00000000
Mo      25.27669946      66.14068789      -0.00000000  F       0.00023568       0.00028633      -0.00000000
Mo      26.85833806      66.14808349       2.25049301  F       0.00006159       0.00033593       0.00000000
Mo      25.22500705      68.40269900       2.25049301  F      -0.00002043       0.00017335       0.00000000
Mo      26.80550953      68.41032892      -0.00000000  F       0.00034515       0.00003112      -0.00000000
Mo      25.17969304      70.66570311       0.00000000  T       0.00000000       0.00000000       0.00000000
Mo      26.75559272      70.67544447       2.25049301  F      -0.00000735      -0.00001388      -0.00000000
Mo      25.13347189      72.93175467       2.25049301  T       0.00000000       0.00000000       0.00000000
Mo      26.71029353      72.94096380      -0.00000000  T       0.00000000       0.00000000       0.00000000
Mo      25.09010312      75.19912735       0.00000000  T       0.00000000       0.00000000       0.00000000
Mo      26.66585167      75.20954896       2.25049301  T       0.00000000       0.00000000       0.00000000
Mo      25.04982423      77.46732788       2.25049301  T       0.00000000       0.00000000       0.00000000
Mo      26.62489540      77.47884558      -0.00000000  T       0.00000000       0.00000000       0.00000000
Mo      25.01277885      79.73588446       0.00000000  T       0.00000000       0.00000000       0.00000000
Mo      26.58754459      79.74832591       2.25049301  T       0.00000000       0.00000000       0.00000000
Mo      24.97901374      82.00437254       2.25049301  T       0.00000000       0.00000000       0.00000000
Mo      26.55380321      82.01753088      -0.00000000  T       0.00000000       0.00000000       0.00000000
Mo      24.94848475      84.27243363       0.00000000  T       0.00000000       0.00000000       0.00000000
Mo      26.52357175      84.28608895       2.25049301  T       0.00000000       0.00000000       0.00000000
Mo      24.92107035      86.53978519       2.25049301  T       0.00000000       0.00000000       0.00000000
Mo      26.49666803      86.55372308      -0.00000000  T       0.00000000       0.00000000       0.00000000
Mo      26.47285182      88.82024715       2.25049301  T       0.00000000       0.00000000       0.00000000
Mo      26.05987225      25.81853573       0.00000000  T       0.00000000       0.00000000       0.00000000
Mo      27.66557079      25.83297421       2.25049301  T       0.00000000       0.00000000       0.00000000
Mo      26.03871081      28.05407704       2.25049301  T       0.00000000       0.00000000       0.00000000
Mo      27.64525299      28.06867624      -0.00000000  T       0.00000000       0.00000000       0.00000000
Mo      26.01478534      30.28844120       0.00000000  T       0.00000000       0.00000000       0.00000000
Mo      27.62208009      30.30302667       2.25049301  T       0.00000000       0.00000000       0.00000000
Mo      25.98785189      32.52174742       2.25049301  T       0.00000000       0.00000000       0.00000000
Mo      27.59575033      32.53611113      -0.00000000  T       0.00000000       0.00000000       0.00000000
Mo      25.95770724      34.75419301       0.00000000  T       0.00000000       0.00000000       0.00000000
Mo      27.56599494      34.76810129       2.25049301  T       0.00000000       0.00000000       0.00000000
Mo      25.92421176      36.98606119       2.25049301  T       0.00000000       0.00000000       0.00000000
Mo      27.53260637      36.99926917      -0.00000000  T       0.00000000       0.00000000       0.00000000
Mo      25.88731110      39.21772108       0.00000000  T       0.00000000       0.00000000       0.00000000
Mo      27.49147913      39.22884570       2.25049301  F      -0.00029340      -0.00047683      -0.00000000
Mo      25.84298217      41.44919672       2.25049301  F      -0.00059838      -0.00041840       0.00000000
Mo      27.44884976      41.46014877      -0.00000000  F       0.00020722      -0.00047349      -0.00000000
Mo      25.79910543      43.68312818      -0.00000000  F      -0.00030470      -0.00027300      -0.00000000
Mo      27.40308963      43.69177636       2.25049301  F       0.00061975      -0.00040677       0.00000000
Mo      25.75163582      45.91764080       2.25049301  F       0.00034620       0.00014092       0.00000000
Mo      27.35400232      45.92533270       0.00000000  F       0.00043043      -0.00020271      -0.00000000
Mo      25.70173038      48.15350123      -0.00000000  F       0.00032979       0.00004647      -0.00000000
Mo      27.30301018      48.16041778       2.25049301  F      -0.00018739      -0.00035204       0.00000000
Mo      25.65118536      50.39176018       2.25049301  F      -0.00001021      -0.00010163       0.00000000
Mo      27.25040873      50.39765733      -0.00000000  F      -0.00028664      -0.00017862      -0.00000000
Mo      25.59928440      52.63250740       0.00000000  F      -0.00005517      -0.00008234      -0.00000000
Mo      27.19634796      52.63772197       2.25049301  F      -0.00041636      -0.00009322       0.00000000
Mo      25.54628756      54.87602227       2.25049301  F      -0.00018161      -0.00002285       0.00000000
Mo      27.14095209      54.88072716      -0.00000000  F      -0.00040085       0.00006200       0.00000000
Mo      25.49274072      57.12228550       0.00000000  F      -0.00009591      -0.00016439      -0.00000000
Mo      27.08456873      57.12715687       2.25049301  F      -0.00026151       0.00014363      -0.00000000
Mo      28.61610110      59.38258292       2.25049301  F      -0.00034493       0.00016418       0.00000000
Mo      30.20436442      59.38813672      -0.00000000  F      -0.00050360       0.00003450       0.00000000
Mo      28.55565410      61.63687278      -0.00000000  F      -0.00053667       0.00033464       0.00000000
Mo      30.14056586      61.64321803       2.25049301  F      -0.00059318       0.00019278      -0.00000000
Mo      28.49593278      63.89485196       2.25049301  F      -0.00051283       0.00053966      -0.00000000
Mo      30.07774307      63.90224965       0.00000000  F      -0.00062245       0.00018481       0.00000000
Mo      28.43810935      66.15598067      -0.00000000  F      -0.00047579       0.00050947      -0.00000000
Mo      30.01715002      66.16483957       2.25049301  F      -0.00087792       0.00032994      -0.00000000
Mo      28.38298608      68.42001751       2.25049301  F       0.00000205       0.00003769       0.00000000
Mo      29.95991871      68.43013961       0.00000000  F      -0.00089973       0.00042127      -0.00000000
Mo      28.33210321      70.68589491       0.00000000  F       0.00040713      -0.00045317      -0.00000000
Mo      29.90651487      70.69793710       2.25049301  F       0.00008315       0.00007649       0.00000000
Mo      28.28389102      72.95403608       2.25049301  F       0.00032641      -0.00022805       0.00000000
Mo      29.85743145      72.96739637      -0.00000000  F       0.00054666      -0.00032228       0.00000000
Mo      28.23840390      75.22314330       0.00000000  F      -0.00029252       0.00014976      -0.00000000
Mo      29.81235155      75.23707622       2.25049301  F      -0.00011155      -0.00031887       0.00000000
Mo      28.19893331      77.49141303       2.25049301  T       0.00000000       0.00000000       0.00000000
Mo      29.77127709      77.50729900       0.00000000  F      -0.00051107       0.00038125      -0.00000000
Mo      28.16142280      79.76181058       0.00000000  T       0.00000000       0.00000000       0.00000000
Mo      29.73441011      79.77642884       2.25049301  T       0.00000000       0.00000000       0.00000000
Mo      28.12787398      82.03168179       2.25049301  T       0.00000000       0.00000000       0.00000000
Mo      29.70125723      82.04688388      -0.00000000  T       0.00000000       0.00000000       0.00000000
Mo      28.09811514      84.30065165       0.00000000  T       0.00000000       0.00000000       0.00000000
Mo      29.67217205      84.31614859       2.25049301  T       0.00000000       0.00000000       0.00000000
Mo      28.07188988      86.56846015       2.25049301  T       0.00000000       0.00000000       0.00000000
Mo      29.64680962      86.58399496      -0.00000000  T       0.00000000       0.00000000       0.00000000
Mo      28.04888918      88.83495153       0.00000000  T       0.00000000       0.00000000       0.00000000
Mo      29.62478373      88.85031080       2.25049301  T       0.00000000       0.00000000       0.00000000
Mo      28.02878031      91.10005651       2.25049301  T       0.00000000       0.00000000       0.00000000
Mo      29.60569955      91.11507373      -0.00000000  T       0.00000000       0.00000000       0.00000000
Mo      29.28809445      23.61045651       2.25049301  T       0.00000000       0.00000000       0.00000000
Mo      30.89269637      23.62536026      -0.00000000  T       0.00000000       0.00000000       0.00000000
Mo      29.27131396      25.84795520       0.00000000  T       0.00000000       0.00000000       0.00000000
Mo      30.87701000      25.86342514       2.25049301  T       0.00000000       0.00000000       0.00000000
Mo      29.25197277      28.08395448       2.25049301  T       0.00000000       0.00000000       0.00000000
Mo      30.85877743      28.09987522      -0.00000000  T       0.00000000       0.00000000       0.00000000
Mo      29.22971121      30.31842858       0.00000000  T       0.00000000       0.00000000       0.00000000
Mo      30.83759226      30.33463469       2.25049301  T       0.00000000       0.00000000       0.00000000
Mo      29.20416496      32.55141906       2.25049301  T       0.00000000       0.00000000       0.00000000
Mo      30.81302523      32.56769030      -0.00000000  T       0.00000000       0.00000000       0.00000000
Mo      29.17499014      34.78305894       0.00000000  T       0.00000000       0.00000000       0.00000000
Mo      30.78249707      34.79646717       2.25049301  F       0.00006863      -0.00023050       0.00000000
Mo      29.13843609      37.01134333       2.25049301  F       0.00012886      -0.00026917       0.00000000
Mo      30.74754036      37.02487200       0.00000000  F       0.00050774       0.00019007      -0.00000000
Mo      29.09885500      39.24086529       0.00000000  F       0.00046628      -0.00020274      -0.00000000
Mo      30.70652736      39.25255773       2.25049301  F       0.00072490      -0.00033284       0.00000000
Mo      29.05453023      41.47020256       2.25049301  F       0.00055613      -0.00051856       0.00000000
Mo      30.66189697      41.48105655      -0.00000000  F       0.00018477      -0.00065740      -0.00000000
Mo      29.00765047      43.70109535       0.00000000  F       0.00000479      -0.00085142      -0.00000000
Mo      30.61378773      43.71046465       2.25049301  F      -0.00067643      -0.00123856       0.00000000
Mo      28.95759507      45.93331610       2.25049301  F      -0.00053383      -0.00122324       0.00000000
Mo      30.56224430      45.94145488      -0.00000000  F      -0.00065215      -0.00114179      -0.00000000
Mo      28.90492804      48.16733744       0.00000000  F      -0.00056443      -0.00072889      -0.00000000
Mo      30.50778739      48.17437315       2.25049301  F      -0.00044953      -0.00092840       0.00000000
Mo      28.85024416      50.40372848       2.25049301  F      -0.00039849      -0.00029414      -0.00000000
Mo      30.45085211      50.40985126       0.00000000  F      -0.00017576      -0.00042385      -0.00000000
Mo      28.79370391      52.64302456       0.00000000  F      -0.00011060      -0.00001098      -0.00000000
Mo      30.39167786      52.64849598       2.25049301  F       0.00009868       0.00000606       0.00000000
Mo      28.73559680      54.88569534       2.25049301  F      -0.00001526       0.00044911       0.00000000
Mo      30.33059251      54.89085859      -0.00000000  F      -0.00014704       0.00017539       0.00000000
Mo      28.67625336      57.13215243      -0.00000000  F      -0.00005838       0.00027469      -0.00000000
Mo      30.26795191      57.13733586       2.25049301  F      -0.00032356       0.00006568      -0.00000000
Mo      31.79211828      59.39395354       2.25049301  F      -0.00049976      -0.00023170      -0.00000000
Mo      33.37936101      59.39991082      -0.00000000  F       0.00015654      -0.00034227       0.00000000
Mo      31.72461454      61.64989818      -0.00000000  F      -0.00065518      -0.00006504       0.00000000
Mo      33.30767313      61.65694999       2.25049301  F       0.00018474      -0.00038357      -0.00000000
Mo      31.65831990      63.91024318       2.25049301  F      -0.00073194      -0.00008408      -0.00000000
Mo      33.23763861      63.91871286      -0.00000000  F      -0.00002224      -0.00029810       0.00000000