1394
Lattice="124.24592561183829 0.0 0.0 0.0 125.53348254599084 0.0 0.0 0.0 2.745473016716568" Properties=species:S:1:pos:R:3:fix_mask:L:1:forces:R:3 energy=-14757.654982226977 pbc="T T T"
Mo      12.93113098      55.29403655      -0.39263228  T       0.00000000       0.00000000       0.00000000
Mo      12.93766221      59.77776720      -0.43140525  T       0.00000000       0.00000000       0.00000000
Mo      12.94460683      64.26116687       2.27479207  T       0.00000000       0.00000000       0.00000000
Mo      12.95134364      68.74421307       2.23575894  T       0.00000000       0.00000000       0.00000000
Mo      20.68120721      37.35966426      -0.22314650  T       0.00000000       0.00000000       0.00000000
Mo      19.38737233      39.60094096       0.66954185  T       0.00000000       0.00000000       0.00000000
Mo      18.09406166      41.84248004      -1.18317278  T       0.00000000       0.00000000       0.00000000
Mo      20.68205001      41.84250906      -0.25814580  T       0.00000000       0.00000000       0.00000000
Mo      16.80126716      44.08422647      -0.29024953  T       0.00000000       0.00000000       0.00000000
Mo      19.38909992      44.08417545       0.63364295  T       0.00000000       0.00000000       0.00000000
Mo      18.09669662      46.32602963      -1.21979789  T       0.00000000       0.00000000       0.00000000
Mo      20.68442968      46.32594527      -0.29625828  T       0.00000000       0.00000000       0.00000000
Mo      15.50895523      46.32612015       0.60293279  T       0.00000000       0.00000000       0.00000000
Mo      14.21706948      48.56810152      -1.24900634  T       0.00000000       0.00000000       0.00000000
Mo      16.80478458      48.56800230      -0.32741512  T       0.00000000       0.00000000       0.00000000
Mo      19.39246527      48.56789834       0.59485776  T       0.00000000       0.00000000       0.00000000
Mo      18.10098449      50.80993231      -1.25903420  T       0.00000000       0.00000000       0.00000000
Mo      20.68863354      50.80982676      -0.33736222  T       0.00000000       0.00000000       0.00000000
Mo      15.51328457      50.81002877       0.56542203  T       0.00000000       0.00000000       0.00000000
Mo      14.22210110      53.05205416      -1.28666178  T       0.00000000       0.00000000       0.00000000
Mo      16.80988151      53.05197996      -0.36687280  T       0.00000000       0.00000000       0.00000000
Mo      19.39760404      53.05189609       0.55343373  T       0.00000000       0.00000000       0.00000000
Mo      18.10689238      55.29393439      -1.30050991  T       0.00000000       0.00000000       0.00000000
Mo      20.69468571      55.29387123      -0.38107106  T       0.00000000       0.00000000       0.00000000
Mo      15.51903835      55.29398904       0.52597395  T       0.00000000       0.00000000       0.00000000
Mo      14.22833567      57.53592433      -1.32587644  T       0.00000000       0.00000000       0.00000000
Mo      16.81635905      57.53589661      -0.40813793  T       0.00000000       0.00000000       0.00000000
Mo      19.40433537      57.53586423       0.50989996  T       0.00000000       0.00000000       0.00000000
Mo      18.11405533      59.77774778      -1.34357756  T       0.00000000       0.00000000       0.00000000
Mo      20.70220573      59.77773538      -0.42665670  T       0.00000000       0.00000000       0.00000000
Mo      15.52587254      59.77775826       0.48516464  T       0.00000000       0.00000000       0.00000000
Mo      14.23531881      62.01951272      -1.36601138  T       0.00000000       0.00000000       0.00000000
Mo      16.82370925      62.01951209      -0.45047961  T       0.00000000       0.00000000       0.00000000
Mo      19.41209189      62.01951136       0.46509625  T       0.00000000       0.00000000       0.00000000
Mo      18.12178523      64.26116189       1.35813585  T       0.00000000       0.00000000       0.00000000
Mo      20.71039841      64.26115870       2.27240784  T       0.00000000       0.00000000       0.00000000
Mo      15.53318890      64.26116458       3.18924101  T       0.00000000       0.00000000       0.00000000
Mo      14.24241660      66.50272365       1.33918330  T       0.00000000       0.00000000       0.00000000
Mo      16.83119398      66.50270880       2.25248326  T       0.00000000       0.00000000       0.00000000
Mo      19.42000767      66.50269134       3.16556589  T       0.00000000       0.00000000       0.00000000
Mo      18.12922913      68.74414252       1.31471088  T       0.00000000       0.00000000       0.00000000
Mo      20.71825101      68.74409826       2.22639787  T       0.00000000       0.00000000       0.00000000
Mo      15.54026248      68.74418041       3.14812806  T       0.00000000       0.00000000       0.00000000
Mo      14.24896549      70.98560595       1.29956181  T       0.00000000       0.00000000       0.00000000
Mo      16.83803666      70.98554693       2.21074320  T       0.00000000       0.00000000       0.00000000
Mo      19.42716618      70.98547926       3.12147324  T       0.00000000       0.00000000       0.00000000
Mo      18.13561755      73.22684935       1.27258554  T       0.00000000       0.00000000       0.00000000
Mo      20.72486143      73.22675311       2.18192602  T       0.00000000       0.00000000       0.00000000
Mo      15.54643228      73.22693525       3.10812272  T       0.00000000       0.00000000       0.00000000
Mo      14.25443687      75.46833206       1.26129607  T       0.00000000       0.00000000       0.00000000
Mo      16.84363484      75.46823611       2.17058069  T       0.00000000       0.00000000       0.00000000
Mo      19.43287849      75.46813215       3.07923003  T       0.00000000       0.00000000       0.00000000
Mo      18.14046674      77.70955859       1.23250621  T       0.00000000       0.00000000       0.00000000
Mo      20.72969885      77.70945755       2.13984668  T       0.00000000       0.00000000       0.00000000
Mo      15.55125971      77.70965873       3.06987927  T       0.00000000       0.00000000       0.00000000
Mo      16.84768375      79.95104363       2.13257123  T       0.00000000       0.00000000       0.00000000
Mo      19.43683368      79.95096550       3.03947859  T       0.00000000       0.00000000       0.00000000
Mo      18.14363852      82.19254675       1.19494079  T       0.00000000       0.00000000       0.00000000
Mo      20.73266248      82.19252795       2.10066357  T       0.00000000       0.00000000       0.00000000
Mo      19.43907522      84.43423166       3.00255975  T       0.00000000       0.00000000       0.00000000
Mo      20.73397109      86.67615968       2.06458219  T       0.00000000       0.00000000       0.00000000
Mo      25.86109867      28.39781901      -1.04962252  T       0.00000000       0.00000000       0.00000000
Mo      28.45066257      28.39925948      -0.11890867  T       0.00000000       0.00000000       0.00000000
Mo      24.56556250      30.63777148      -0.15626726  T       0.00000000       0.00000000       0.00000000
Mo      27.15487609      30.63890125       0.77370027  T       0.00000000       0.00000000       0.00000000
Mo      25.85938784      32.87889186      -1.07956939  T       0.00000000       0.00000000       0.00000000
Mo      28.44864184      32.87996371      -0.14918676  T       0.00000000       0.00000000       0.00000000
Mo      23.27035395      32.87805996       0.73678019  T       0.00000000       0.00000000       0.00000000
Mo      21.97554836      35.11869428      -1.11585975  T       0.00000000       0.00000000       0.00000000
Mo      24.56429056      35.11925725      -0.18766604  T       0.00000000       0.00000000       0.00000000
Mo      27.15322991      35.12001190       0.74175169  T       0.00000000       0.00000000       0.00000000
Mo      25.85828505      37.36047679      -1.11306755  T       0.00000000       0.00000000       0.00000000
Mo      28.44710642      37.36114102      -0.18338274  T       0.00000000       0.00000000       0.00000000
Mo      23.26966529      37.35999969       0.70404524  T       0.00000000       0.00000000       0.00000000
Mo      21.97557340      39.60109775      -1.14979971  T       0.00000000       0.00000000       0.00000000
Mo      24.56389257      39.60134957      -0.22257308  T       0.00000000       0.00000000       0.00000000
Mo      27.15236733      39.60173185       0.70590407  T       0.00000000       0.00000000       0.00000000
Mo      25.85827303      41.84275895      -1.15039448  T       0.00000000       0.00000000       0.00000000
Mo      28.44783120      41.84376303      -0.22124570  F       0.00000000       0.00000003       0.00000005
Mo      23.27011012      41.84259380       0.66788811  T       0.00000000       0.00000000       0.00000000
Mo      21.97696076      44.08415039      -1.18703092  T       0.00000000       0.00000000       0.00000000
Mo      24.56487184      44.08416626      -0.26118548  T       0.00000000       0.00000000       0.00000000
Mo      27.15414473      44.08487752       0.66635900  F       0.00000003      -0.00000000       0.00000005
Mo      25.86120274      46.32636024      -1.19142521  F       0.00000003      -0.00000004       0.00000004
Mo      28.44866818      46.32635744      -0.26403610  F      -0.00000008       0.00000003       0.00000010
Mo      23.27216708      46.32587448       0.62820485  T       0.00000000       0.00000000       0.00000000
Mo      21.98011581      48.56779204      -1.22755051  T       0.00000000       0.00000000       0.00000000
Mo      24.56774406      48.56768775      -0.30355961  T       0.00000000       0.00000000       0.00000000
Mo      27.15582377      48.56803105       0.62201638  F       0.00000010       0.00000007       0.00000008
Mo      25.86408822      50.80975505      -1.23679029  F       0.00000009       0.00000004       0.00000007
Mo      28.45128828      50.80941332      -0.31206229  F      -0.00000014      -0.00000009       0.00000014
Mo      23.27623113      50.80971242       0.58507799  T       0.00000000       0.00000000       0.00000000
Mo      21.98526301      53.05180123      -1.27112511  T       0.00000000       0.00000000       0.00000000
Mo      24.57341502      53.05184517      -0.34942319  F      -0.00000002      -0.00000007       0.00000005
Mo      27.16038710      53.05138808       0.57315576  F       0.00000001      -0.00000007       0.00000013
Mo      25.87024796      55.29358766      -1.28604203  F       0.00000011       0.00000002       0.00000010
Mo      28.45745494      55.29320220      -0.36477339  F       0.00000002       0.00000010       0.00000017
Mo      23.28319647      55.29396580       0.53883863  F      -0.00000010      -0.00000001       0.00000004
Mo      21.99225681      57.53582611      -1.31718082  T       0.00000000       0.00000000       0.00000000
Mo      24.58039922      57.53570862      -0.39853569  F       0.00000001       0.00000010       0.00000007
Mo      27.16781667      57.53532858       0.52049922  F       0.00000007       0.00000002       0.00000015
Mo      25.87839160      59.77733470      -1.33805841  F       0.00000003      -0.00000009       0.00000012
Mo      28.46607985      59.77702679      -0.42079199  F      -0.00000016      -0.00000005       0.00000019
Mo      23.29090276      59.77766649       0.49035852  F      -0.00000001      -0.00000002       0.00000004
Mo      22.00046525      62.01951048      -1.36474851  T       0.00000000       0.00000000       0.00000000
Mo      24.58893241      62.01917157      -0.44945303  F      -0.00000005      -0.00000005       0.00000008
Mo      27.17696551      62.01887182       0.46572294  F       0.00000010       0.00000004       0.00000015
Mo      25.88767241      64.26054868       1.35432583  F       0.00000010       0.00000010       0.00000011
Mo      28.47599341      64.26027955       2.26744991  F      -0.00000005      -0.00000005       0.00000019
Mo      23.29961932      64.26085795       3.18632823  F      -0.00000005       0.00000004       0.00000004
Mo      22.00886409      66.50267065       1.33291775  T       0.00000000       0.00000000       0.00000000
Mo      24.59804127      66.50209218       2.24490581  F       0.00000001      -0.00000002       0.00000007
Mo      27.18657357      66.50181800       3.15633993  F      -0.00000004      -0.00000008       0.00000015
Mo      25.89661741      68.74326715       1.30205424  F       0.00000004      -0.00000005       0.00000010
Mo      28.48543922      68.74295318       2.21133138  F      -0.00000002       0.00000010       0.00000017
Mo      23.30813515      68.74359430       3.13731955  F      -0.00000006      -0.00000004       0.00000004
Mo      22.01636152      70.98540138       1.28619854  T       0.00000000       0.00000000       0.00000000
Mo      24.60610686      70.98469120       2.19531804  F      -0.00000000       0.00000006       0.00000006
Mo      27.19494235      70.98432726       3.10339832  F       0.00000008       0.00000005       0.00000012
Mo      25.90403820      73.22552823       1.25218515  F       0.00000002      -0.00000002       0.00000008
Mo      28.49304109      73.22532960       2.15822643  F      -0.00000012      -0.00000010       0.00000015
Mo      23.31416813      73.22664561       3.09056561  T       0.00000000       0.00000000       0.00000000
Mo      22.02216742      75.46802082       1.24166539  T       0.00000000       0.00000000       0.00000000
Mo      24.61287150      75.46719802       2.14833324  F      -0.00000002      -0.00000003       0.00000004
Mo      27.20171191      75.46666364       3.05375219  F      -0.00000001      -0.00000000       0.00000010
Mo      25.90952649      77.70841490       1.20574313  F       0.00000004       0.00000003       0.00000005
Mo      28.49828937      77.70820135       2.10929391  F       0.00000002       0.00000002       0.00000010
Mo      23.31894782      77.70936017       3.04630349  T       0.00000000       0.00000000       0.00000000
Mo      22.02597601      79.95090199       1.20003410  T       0.00000000       0.00000000       0.00000000
Mo      24.61509277      79.95086428       2.10504358  T       0.00000000       0.00000000       0.00000000
Mo      27.20539247      79.94996628       3.00827714  F      -0.00000000      -0.00000003       0.00000006
Mo      25.91053207      82.19263196       1.16351320  T       0.00000000       0.00000000       0.00000000
Mo      28.50050479      82.19192404       2.06514976  F      -0.00000005       0.00000002       0.00000005
Mo      23.32163637      82.19254952       3.00539635  T       0.00000000       0.00000000       0.00000000
Mo      22.02790835      84.43431887       1.16164868  T       0.00000000       0.00000000       0.00000000
Mo      24.61664337      84.43448288       2.06512086  T       0.00000000       0.00000000       0.00000000
Mo      27.20524364      84.43475539       2.96734190  T       0.00000000       0.00000000       0.00000000
Mo      25.91100125      86.67677357       1.12481494  T       0.00000000       0.00000000       0.00000000
Mo      28.49925555      86.67730737       2.02574070  T       0.00000000       0.00000000       0.00000000
Mo      23.32255927      86.67640536       2.96802254  T       0.00000000       0.00000000       0.00000000
Mo      22.02833131      88.91838375       1.12658165  T       0.00000000       0.00000000       0.00000000
Mo      24.61663673      88.91884105       2.02895496  T       0.00000000       0.00000000       0.00000000
Mo      27.20475388      88.91947244       2.93008595  T       0.00000000       0.00000000       0.00000000
Mo      25.91019293      91.16165946       1.09003472  T       0.00000000       0.00000000       0.00000000
Mo      28.49797888      91.16260271       1.99012180  T       0.00000000       0.00000000       0.00000000
Mo      23.32218808      91.16094262       2.93413177  T       0.00000000       0.00000000       0.00000000
Mo      24.61559702      93.40385647       1.99638686  T       0.00000000       0.00000000       0.00000000
Mo      27.20330477      93.40486972       2.89684997  T       0.00000000       0.00000000       0.00000000
Mo      25.90863161      95.64712438       1.05891945  T       0.00000000       0.00000000       0.00000000
Mo      28.49606566      95.64845517       1.95856784  T       0.00000000       0.00000000       0.00000000
Mo      27.20137623      97.89072427       2.86729985  T       0.00000000       0.00000000       0.00000000
Mo      34.92903164      21.68445636       0.87872875  T       0.00000000       0.00000000       0.00000000
Mo      33.63284196      23.92316594      -0.97268596  T       0.00000000       0.00000000       0.00000000
Mo      36.22307608      23.92584267      -0.03840433  T       0.00000000       0.00000000       0.00000000
Mo      31.04275041      23.92081916       0.83973475  T       0.00000000       0.00000000       0.00000000
Mo      29.74665124      26.15991970      -1.01202391  T       0.00000000       0.00000000       0.00000000
Mo      32.33662006      26.16198806      -0.07944259  T       0.00000000       0.00000000       0.00000000
Mo      34.92677710      26.16440840       0.85444631  T       0.00000000       0.00000000       0.00000000
Mo      33.63045443      28.40311270      -0.99906614  T       0.00000000       0.00000000       0.00000000
Mo      36.22067972      28.40560750      -0.06426409  T       0.00000000       0.00000000       0.00000000
Mo      31.04044626      28.40100947       0.81306687  T       0.00000000       0.00000000       0.00000000
Mo      29.74441753      30.64031193      -1.04053321  T       0.00000000       0.00000000       0.00000000
Mo      32.33420522      30.64205614      -0.10789781  T       0.00000000       0.00000000       0.00000000
Mo      34.92424894      30.64418794       0.82625964  T       0.00000000       0.00000000       0.00000000
Mo      33.62792574      32.88305698      -1.02954562  T       0.00000000       0.00000000       0.00000000
Mo      36.21865664      32.88588294      -0.09354617  F      -0.00000006      -0.00000007       0.00000004
Mo      31.03814582      32.88133113       0.78259535  T       0.00000000       0.00000000       0.00000000
Mo      29.74240379      35.12101106      -1.07292839  T       0.00000000       0.00000000       0.00000000
Mo      32.33185068      35.12231876      -0.14059196  T       0.00000000       0.00000000       0.00000000
Mo      34.92215914      35.12447120       0.79468516  F      -0.00000008       0.00000003       0.00000006
Mo      33.62600087      37.36344817      -1.06348068  F       0.00000007       0.00000006       0.00000007
Mo      36.21541283      37.36504626      -0.12722571  F      -0.00000006       0.00000005       0.00000011
Mo      31.03617472      37.36205065       0.74780535  T       0.00000000       0.00000000       0.00000000
Mo      29.74222927      39.60309775      -1.10907609  F      -0.00000003       0.00000004       0.00000004
Mo      32.33079689      39.60319819      -0.17666429  F       0.00000012       0.00000005       0.00000008
Mo      34.91952475      39.60417313       0.75807007  F      -0.00000015      -0.00000007       0.00000014
Mo      33.62438088      41.84413422      -1.10285750  F      -0.00000002      -0.00000007       0.00000016
Mo      36.21309243      41.84503300      -0.16741173  F      -0.00000017       0.00000005       0.00000021
Mo      31.03618347      41.84387785       0.70961065  F      -0.00000000      -0.00000007       0.00000010
Mo      29.74203136      44.08489424      -1.14991732  F      -0.00000016      -0.00000009       0.00000010
Mo      32.32987779      44.08483642      -0.21881225  F       0.00000018      -0.00000003       0.00000017
Mo      34.91802643      44.08510515       0.71459224  F      -0.00000006       0.00000013       0.00000021
Mo      33.62384825      46.32593691      -1.14929966  F       0.00000011       0.00000007       0.00000023
Mo      36.21179210      46.32610851      -0.21564695  F      -0.00000021      -0.00000018       0.00000029
Mo      31.03614098      46.32604972       0.66502911  F       0.00000007       0.00000015       0.00000016
Mo      29.74323595      48.56765005      -1.19648948  F      -0.00000008       0.00000003       0.00000014
Mo      32.33067316      48.56733546      -0.26775221  F       0.00000011      -0.00000009       0.00000023
Mo      34.91817060      48.56713878       0.66319497  F      -0.00000028      -0.00000008       0.00000029
Mo      33.62581518      50.80875221      -1.20320892  F       0.00000013       0.00000002       0.00000028
Mo      36.21306089      50.80849578      -0.27279351  F      -0.00000009       0.00000022       0.00000035
Mo      31.03859468      50.80910030       0.61416840  F      -0.00000003      -0.00000017       0.00000021
Mo      29.74758259      53.05108684      -1.24860967  F      -0.00000015       0.00000010       0.00000019
Mo      32.33468754      53.05072312      -0.32340616  F       0.00000026       0.00000018       0.00000027
Mo      34.92172543      53.05036176       0.60364746  F      -0.00000009      -0.00000002       0.00000033
Mo      33.63164933      55.29250368      -1.26412924  F      -0.00000006      -0.00000010       0.00000033
Mo      36.21859514      55.29215142      -0.33865764  F      -0.00000021      -0.00000012       0.00000040
Mo      31.04459097      55.29285791       0.55760102  F       0.00000003       0.00000005       0.00000024
Mo      29.75517537      57.53499934      -1.30527000  F      -0.00000019      -0.00000018       0.00000022
Mo      32.34245154      57.53468427      -0.38465541  F       0.00000011      -0.00000015       0.00000030
Mo      34.92960737      57.53437656       0.53708451  F      -0.00000010       0.00000012       0.00000037
Mo      33.64121904      59.77649264      -1.33013760  F       0.00000017       0.00000011       0.00000034
Mo      36.22864239      59.77626356      -0.41104154  F      -0.00000009      -0.00000003       0.00000042
Mo      31.05369091      59.77674473       0.49697645  F       0.00000006       0.00000011       0.00000026
Mo      29.76495943      62.01861033      -1.36448786  F      -0.00000003       0.00000016       0.00000022
Mo      32.35291768      62.01838908      -0.44907238  F       0.00000008       0.00000005       0.00000031
Mo      34.94082665      62.01820923       0.46649818  F      -0.00000021      -0.00000016       0.00000039
Mo      33.65267133      64.25989066       1.34756177  F      -0.00000004      -0.00000005       0.00000034
Mo      36.24102894      64.25977659       2.25981278  F      -0.00000004       0.00000016       0.00000042
Mo      31.06432484      64.26005849       3.18038498  F      -0.00000004      -0.00000019       0.00000027
Mo      29.77519487      66.50155523       1.32176281  F      -0.00000014      -0.00000005       0.00000022
Mo      32.36387867      66.50136782       2.23206714  F       0.00000019       0.00000007       0.00000029
Mo      34.95260261      66.50125373       3.14157971  F       0.00000000       0.00000009       0.00000036
Mo      33.66326562      68.74260053       1.28174822  F      -0.00000003      -0.00000005       0.00000032
Mo      36.25223196      68.74257728       2.18783252  F      -0.00000009      -0.00000021       0.00000040
Mo      31.07432591      68.74272599       3.11979373  F       0.00000007       0.00000017       0.00000024
Mo      29.78401422      70.98403098       1.26497217  F      -0.00000006      -0.00000008       0.00000019
Mo      32.37304042      70.98390740       2.17085188  F      -0.00000002      -0.00000013       0.00000028
Mo      34.96204910      70.98391651       3.07524127  F      -0.00000015       0.00000001       0.00000034
Mo      33.67097294      73.22529718       1.22073451  F       0.00000009       0.00000009       0.00000028
Mo      36.25980575      73.22555188       2.12202056  F       0.00000000       0.00000015       0.00000035
Mo      31.08204556      73.22522981       3.06298697  F       0.00000003      -0.00000007       0.00000021
Mo      29.79043458      75.46665759       1.21227339  F      -0.00000002       0.00000014       0.00000016
Mo      32.37917940      75.46676874       2.11472519  F       0.00000011       0.00000010       0.00000023
Mo      34.96780842      75.46711545       3.01528720  F      -0.00000008      -0.00000013       0.00000029
Mo      33.67520388      77.70878403       1.16598138  F      -0.00000012      -0.00000009       0.00000024
Mo      36.26339035      77.70954872       2.06395950  F      -0.00000005      -0.00000001       0.00000030
Mo      31.08678550      77.70837237       3.01127993  F      -0.00000000      -0.00000004       0.00000017
Mo      29.79394479      79.95004853       1.16454600  F      -0.00000006      -0.00000011       0.00000011
Mo      32.38212068      79.95055001       2.06456576  F       0.00000006      -0.00000005       0.00000017
Mo      34.97009907      79.95140666       2.96255157  F      -0.00000000       0.00000015       0.00000023
Mo      33.67647384      82.19331803       1.11785486  F       0.00000006       0.00000002       0.00000017
Mo      36.26393959      82.19474159       2.01381019  F      -0.00000004      -0.00000014       0.00000023
Mo      31.08872186      82.19235587       2.96517291  F       0.00000005       0.00000009       0.00000011
Mo      29.79484550      84.43433262       1.12200958  F       0.00000002       0.00000002       0.00000005
Mo      32.38267243      84.43521958       2.02043057  F      -0.00000001      -0.00000002       0.00000011
Mo      34.96994032      84.43675813       2.91688059  F      -0.00000012      -0.00000009       0.00000016
Mo      33.67588966      86.67874402       1.07601746  F      -0.00000001      -0.00000000       0.00000009
Mo      36.26257208      86.68090665       1.97097947  F       0.00000001       0.00000015       0.00000014
Mo      31.08844788      86.67720757       2.92452469  F      -0.00000001      -0.00000005       0.00000005
Mo      29.79264147      88.92033048       1.08433947  T       0.00000000       0.00000000       0.00000000
Mo      32.38133602      88.92061222       1.98200030  F       0.00000002       0.00000002       0.00000004
Mo      34.96821912      88.92300398       2.87772651  F       0.00000003      -0.00000001       0.00000007
Mo      33.67275387      91.16541004       1.04032977  T       0.00000000       0.00000000       0.00000000
Mo      36.26017630      91.16734983       1.93467109  F      -0.00000005      -0.00000005       0.00000006
Mo      31.08551041      91.16383030       2.88876686  T       0.00000000       0.00000000       0.00000000
Mo      29.79077829      93.40615649       1.05052783  T       0.00000000       0.00000000       0.00000000
Mo      32.37799273      93.40777421       1.94822876  T       0.00000000       0.00000000       0.00000000
Mo      34.96493056      93.40978458       2.84433630  T       0.00000000       0.00000000       0.00000000
Mo      33.67022505      95.65209578       1.00834218  T       0.00000000       0.00000000       0.00000000
Mo      36.25694039      95.65450352       1.90371030  T       0.00000000       0.00000000       0.00000000
Mo      31.08326709      95.65009550       2.85690536  T       0.00000000       0.00000000       0.00000000
Mo      29.78857635      97.89237515       1.02077031  T       0.00000000       0.00000000       0.00000000
Mo      32.37556168      97.89435588       1.91842890  T       0.00000000       0.00000000       0.00000000
Mo      34.96233644      97.89670382       2.81471063  T       0.00000000       0.00000000       0.00000000
Mo      33.66776979     100.13885583       0.98067989  T       0.00000000       0.00000000       0.00000000
Mo      36.25443803     100.14149388       1.87649942  T       0.00000000       0.00000000       0.00000000
Mo      31.08093615     100.13656958       2.82903202  T       0.00000000       0.00000000       0.00000000
Mo      32.37323548     102.38096542       1.89249769  T       0.00000000       0.00000000       0.00000000
Mo      34.95998317     102.38350483       2.78922329  T       0.00000000       0.00000000       0.00000000
Mo      36.25227355     104.62821248       1.85318523  T       0.00000000       0.00000000       0.00000000
Mo      42.70128718      17.21316328       0.95805430  T       0.00000000       0.00000000       0.00000000
Mo      41.40553533      19.45190228      -0.89140237  T       0.00000000       0.00000000       0.00000000
Mo      43.99569102      19.45518489       0.04523358  T       0.00000000       0.00000000       0.00000000
Mo      38.81533133      19.44874287       0.91842197  T       0.00000000       0.00000000       0.00000000
Mo      37.51927753      21.68731696      -0.93222000  T       0.00000000       0.00000000       0.00000000
Mo      40.10957482      21.69044137       0.00345053  T       0.00000000       0.00000000       0.00000000
Mo      42.69987228      21.69377792       0.94025498  T       0.00000000       0.00000000       0.00000000
Mo      41.40382005      23.93214341      -0.91149843  T       0.00000000       0.00000000       0.00000000
Mo      43.99422138      23.93567787       0.02659969  T       0.00000000       0.00000000       0.00000000
Mo      38.81341818      23.92884479       0.89714421  T       0.00000000       0.00000000       0.00000000
Mo      37.51709954      26.16719859      -0.95576308  T       0.00000000       0.00000000       0.00000000
Mo      40.10754837      26.17035638      -0.01907675  T       0.00000000       0.00000000       0.00000000
Mo      42.69806732      26.17384966       0.91905243  T       0.00000000       0.00000000       0.00000000
Mo      41.40166614      28.41184876      -0.93543090  T       0.00000000       0.00000000       0.00000000
Mo      43.99240295      28.41633177       0.00536608  F       0.00000002      -0.00000005       0.00000005
Mo      38.81109831      28.40851908       0.87208470  T       0.00000000       0.00000000       0.00000000