479
Lattice="81.34465109182693 0.0 0.0 0.0 84.53584116900443 0.0 0.0 0.0 2.8759677200142253" Properties=species:S:1:pos:R:3:fix_mask:L:1:forces:R:3 energy=-4756.9706104416 pbc="T T T"
Nb      13.34080013      29.72591280      -0.26521885  T       0.00000000       0.00000000       0.00000000
Nb      13.36734007      34.42701600      -0.30707286  T       0.00000000       0.00000000       0.00000000
Nb      12.04553737      36.78016034       0.61522748  T       0.00000000       0.00000000       0.00000000
Nb      10.74417045      39.13354666      -1.35190850  T       0.00000000       0.00000000       0.00000000
Nb      13.44795023      39.13298001      -0.38648054  T       0.00000000       0.00000000       0.00000000
Nb      12.17240164      41.48490918       0.50376637  T       0.00000000       0.00000000       0.00000000
Nb      10.90095789      43.83243154       1.39196942  T       0.00000000       0.00000000       0.00000000
Nb      13.61739133      43.83224667       2.34644963  T       0.00000000       0.00000000       0.00000000
Nb      12.32739437      46.17627707       3.24797145  T       0.00000000       0.00000000       0.00000000
Nb      13.73033139      48.51901356       2.24374628  T       0.00000000       0.00000000       0.00000000
Nb      12.39605226      50.86381220       3.17777036  T       0.00000000       0.00000000       0.00000000
Nb      13.76899442      53.20891656       2.19335929  T       0.00000000       0.00000000       0.00000000
Nb      21.49824883      20.37070325      -0.15655527  T       0.00000000       0.00000000       0.00000000
Nb      20.12586569      22.69856426       0.77064436  T       0.00000000       0.00000000       0.00000000
Nb      18.76088426      25.03572231      -1.17165065  T       0.00000000       0.00000000       0.00000000
Nb      21.47773637      25.04220099      -0.19712298  T       0.00000000       0.00000000       0.00000000
Nb      16.04692368      25.03223317       0.73327780  T       0.00000000       0.00000000       0.00000000
Nb      14.69115637      27.37768057      -1.20372320  T       0.00000000       0.00000000       0.00000000
Nb      17.40205232      27.37873130      -0.23489820  T       0.00000000       0.00000000       0.00000000
Nb      20.11460817      27.38113447       0.73594097  T       0.00000000       0.00000000       0.00000000
Nb      18.75857379      29.72587242      -1.20465613  T       0.00000000       0.00000000       0.00000000
Nb      21.46938362      29.72714927      -0.23390378  T       0.00000000       0.00000000       0.00000000
Nb      16.04923126      29.72562475       0.70241765  T       0.00000000       0.00000000       0.00000000
Nb      14.70346722      32.07528575      -1.23800453  T       0.00000000       0.00000000       0.00000000
Nb      17.41015705      32.07445599      -0.27003683  T       0.00000000       0.00000000       0.00000000
Nb      20.11753227      32.07392719       0.69911834  T       0.00000000       0.00000000       0.00000000
Nb      18.77625433      34.42452241      -1.24691050  T       0.00000000       0.00000000       0.00000000
Nb      21.48107000      34.42330777      -0.27719957  T       0.00000000       0.00000000       0.00000000
Nb      16.07176359      34.42579065       0.66052841  T       0.00000000       0.00000000       0.00000000
Nb      14.74846185      36.77905860      -1.29354203  T       0.00000000       0.00000000       0.00000000
Nb      17.45081620      36.77778035      -0.32538968  T       0.00000000       0.00000000       0.00000000
Nb      20.15266826      36.77630892       0.64388298  T       0.00000000       0.00000000       0.00000000
Nb      18.85208537      39.13137478      -1.32825669  T       0.00000000       0.00000000       0.00000000
Nb      21.56318156      39.12366720      -0.37613229  F      -0.00000003      -0.00000000      -0.00000005
Nb      16.15065008      39.13227148       0.57998405  T       0.00000000       0.00000000       0.00000000
Nb      14.88100405      41.48485255      -1.41113186  T       0.00000000       0.00000000       0.00000000
Nb      17.58898204      41.48477630      -0.44953775  T       0.00000000       0.00000000       0.00000000
Nb      20.29611142      41.48467025       0.51277082  T       0.00000000       0.00000000       0.00000000
Nb      19.05336113      43.83167893       1.37676718  T       0.00000000       0.00000000       0.00000000
Nb      21.75540043      43.81685553       2.34254469  F      -0.00000003       0.00000002      -0.00000007
Nb      16.33476525      43.83200440       3.30012145  T       0.00000000       0.00000000       0.00000000
Nb      15.04771828      46.17543272       1.32258634  T       0.00000000       0.00000000       0.00000000
Nb      17.76906974      46.17439669       2.27203660  T       0.00000000       0.00000000       0.00000000
Nb      20.49154096      46.17311799       3.22013328  T       0.00000000       0.00000000       0.00000000
Nb      19.17046993      48.51632629       1.26574338  T       0.00000000       0.00000000       0.00000000
Nb      21.87849557      48.51834464       2.22132977  F       0.00000000       0.00000004      -0.00000007
Nb      16.45024424      48.51774609       3.19323220  T       0.00000000       0.00000000       0.00000000
Nb      15.11399251      50.86266163       1.25183293  T       0.00000000       0.00000000       0.00000000
Nb      17.83178578      50.86150561       2.20099022  T       0.00000000       0.00000000       0.00000000
Nb      20.54918055      50.86045195       3.14902740  T       0.00000000       0.00000000       0.00000000
Nb      19.19989103      53.20782876       1.21552285  T       0.00000000       0.00000000       0.00000000
Nb      21.91380794      53.20814410       2.16237693  T       0.00000000       0.00000000       0.00000000
Nb      16.48479302      53.20820734       3.14299614  T       0.00000000       0.00000000       0.00000000
Nb      15.13346091      55.55600932       1.21279113  T       0.00000000       0.00000000       0.00000000
Nb      17.84677168      55.55637530       2.16149340  T       0.00000000       0.00000000       0.00000000
Nb      20.55866682      55.55775886       3.10841961  T       0.00000000       0.00000000       0.00000000
Nb      19.20184592      57.90817856       1.18046693  T       0.00000000       0.00000000       0.00000000
Nb      21.90959352      57.91304230       2.12423831  T       0.00000000       0.00000000       0.00000000
Nb      16.49154744      57.90573974       3.10960554  T       0.00000000       0.00000000       0.00000000
Nb      17.84409428      60.25914149       2.12981065  T       0.00000000       0.00000000       0.00000000
Nb      20.55039887      60.26539231       3.07319492  T       0.00000000       0.00000000       0.00000000
Nb      19.19094731      62.61799124       1.14713234  T       0.00000000       0.00000000       0.00000000
Nb      21.89148867      62.63121943       2.08434514  T       0.00000000       0.00000000       0.00000000
Nb      27.02289456      15.82887239      -0.95121074  T       0.00000000       0.00000000       0.00000000
Nb      29.77223844      15.89945265       0.07547403  T       0.00000000       0.00000000       0.00000000
Nb      22.88007177      18.05741060      -1.07273073  T       0.00000000       0.00000000       0.00000000
Nb      25.62452016      18.10649585      -0.06215543  T       0.00000000       0.00000000       0.00000000
Nb      28.37897165      18.17790985       0.96684869  T       0.00000000       0.00000000       0.00000000
Nb      26.97688225      20.44962737      -1.02613152  T       0.00000000       0.00000000       0.00000000
Nb      29.73510374      20.52712224       0.00909798  T       0.00000000       0.00000000       0.00000000
Nb      24.23091342      20.39885829       0.83677361  T       0.00000000       0.00000000       0.00000000
Nb      22.84903015      22.71271855      -1.12399958  T       0.00000000       0.00000000       0.00000000
Nb      25.58118751      22.73965608      -0.13069720  T       0.00000000       0.00000000       0.00000000
Nb      28.32865754      22.79194611       0.88493141  T       0.00000000       0.00000000       0.00000000
Nb      26.93083162      25.07976787      -1.09936841  T       0.00000000       0.00000000       0.00000000
Nb      29.67969354      25.13326013      -0.08115757  T       0.00000000       0.00000000       0.00000000
Nb      24.19958439      25.05458167       0.78359847  T       0.00000000       0.00000000       0.00000000
Nb      22.82988692      27.38610848      -1.16591977  T       0.00000000       0.00000000       0.00000000
Nb      25.55001769      27.39641593      -0.18589382  T       0.00000000       0.00000000       0.00000000
Nb      28.27946073      27.42546347       0.81820748  F       0.00000002      -0.00000002      -0.00000005
Nb      26.89966362      29.74168637      -1.14836159  F       0.00000001      -0.00000004      -0.00000008
Nb      29.62868753      29.78039221      -0.14176514  F       0.00000003      -0.00000004      -0.00000014
Nb      24.18267768      29.73050077       0.73985901  T       0.00000000       0.00000000       0.00000000
Nb      22.82610412      32.07406948      -1.20598146  T       0.00000000       0.00000000       0.00000000
Nb      25.53620477      32.07626717      -0.23230034  F      -0.00000000      -0.00000005      -0.00000008
Nb      28.25518061      32.09253310       0.75596308  F      -0.00000001      -0.00000006      -0.00000015
Nb      26.90374191      34.42419012      -1.21833638  F      -0.00000004      -0.00000006      -0.00000016
Nb      29.62522959      34.44181512      -0.23078125  F      -0.00000006      -0.00000005      -0.00000020
Nb      24.18930197      34.42137221       0.68507313  F      -0.00000002      -0.00000004      -0.00000008
Nb      22.86269427      36.77121863      -1.27855654  F      -0.00000003      -0.00000002      -0.00000008
Nb      25.57813161      36.76687899      -0.31795748  F      -0.00000007      -0.00000005      -0.00000016
Nb      28.29551565      36.77088794       0.65358116  F      -0.00000010      -0.00000007      -0.00000022
Nb      26.99751505      39.11118092      -1.33869708  F      -0.00000012      -0.00000005      -0.00000023
Nb      29.71341981      39.11911743      -0.37005232  F      -0.00000015      -0.00000004      -0.00000025
Nb      24.28040949      39.11350777       0.57648505  F      -0.00000007      -0.00000002      -0.00000015
Nb      23.01123827      41.46233747      -1.41247581  F      -0.00000004       0.00000000      -0.00000011
Nb      25.72424698      41.45702229      -0.45648179  F      -0.00000011      -0.00000001      -0.00000022
Nb      28.43604404      41.46014413       0.50214130  F      -0.00000015      -0.00000007      -0.00000029
Nb      27.16810121      43.80772295       1.38159908  F      -0.00000014       0.00000000      -0.00000029
Nb      29.87536521      43.81661986       2.33284600  F      -0.00000016      -0.00000007      -0.00000034
Nb      24.46188569      43.80766007       3.30249527  F      -0.00000006       0.00000002      -0.00000019
Nb      23.18776951      46.16428128       1.31613539  F      -0.00000002       0.00000005      -0.00000014
Nb      25.89078554      46.16011503       2.27194356  F      -0.00000004       0.00000002      -0.00000027
Nb      28.59576607      46.16537511       3.21937356  F      -0.00000010      -0.00000001      -0.00000035
Nb      27.29483036      48.51655784       1.24789846  F       0.00000000      -0.00000001      -0.00000032
Nb      29.99789681      48.53235517       2.18265754  F       0.00000002      -0.00000010      -0.00000039
Nb      24.58896343      48.51407087       3.17716394  F      -0.00000001       0.00000006      -0.00000020
Nb      23.25712531      50.86403933       1.22485777  F       0.00000003       0.00000005      -0.00000011
Nb      25.96789308      50.86680696       2.16989047  F       0.00000002       0.00000006      -0.00000023
Nb      28.67240655      50.88189983       3.10356222  F       0.00000005      -0.00000004      -0.00000033
Nb      27.32645351      53.22853948       1.16399152  F       0.00000005       0.00000002      -0.00000021
Nb      30.02329566      53.26337630       2.08156538  F       0.00000007      -0.00000006      -0.00000028
Nb      24.61966864      53.21554691       3.10635998  F       0.00000005       0.00000003      -0.00000012
Nb      23.26821787      55.56112859       1.17654685  T       0.00000000       0.00000000       0.00000000
Nb      25.96746945      55.57549810       2.11163625  F       0.00000004       0.00000000      -0.00000008
Nb      28.66675417      55.60614680       3.02857288  F       0.00000005      -0.00000002      -0.00000015
Nb      27.30778183      57.94331452       1.11427778  T       0.00000000       0.00000000       0.00000000
Nb      29.98730833      58.00897038       2.00679828  F       0.00000002      -0.00000003      -0.00000008
Nb      24.61291673      57.92276622       3.06262169  T       0.00000000       0.00000000       0.00000000
Nb      23.25215577      60.27699762       1.13498665  T       0.00000000       0.00000000       0.00000000
Nb      25.94563803      60.29976088       2.06200271  T       0.00000000       0.00000000       0.00000000
Nb      28.62392574      60.34643444       2.96760512  T       0.00000000       0.00000000       0.00000000
Nb      27.26320675      62.70187347       1.04243909  T       0.00000000       0.00000000       0.00000000
Nb      29.92730077      62.77840999       1.92441917  T       0.00000000       0.00000000       0.00000000
Nb      24.58406704      62.65564606       3.01102263  T       0.00000000       0.00000000       0.00000000
Nb      23.22304383      65.01095376       1.08515732  T       0.00000000       0.00000000       0.00000000
Nb      25.90321862      65.05633797       1.99441655  T       0.00000000       0.00000000       0.00000000
Nb      28.57109273      65.12708215       2.88253343  T       0.00000000       0.00000000       0.00000000
Nb      27.21495944      67.47571303       0.96474724  T       0.00000000       0.00000000       0.00000000
Nb      29.88579754      67.54992804       1.85181005  T       0.00000000       0.00000000       0.00000000
Nb      24.54382060      67.40999913       2.94733059  T       0.00000000       0.00000000       0.00000000
Nb      28.53259422      69.89300801       2.81546453  T       0.00000000       0.00000000       0.00000000
Nb      33.87787045      13.63606633       0.16329375  T       0.00000000       0.00000000       0.00000000
Nb      36.59767045      13.65819730       1.15200734  T       0.00000000       0.00000000       0.00000000
Nb      35.23631816      15.99134107      -0.78646673  T       0.00000000       0.00000000       0.00000000
Nb      37.95530861      16.01153086       0.20264241  T       0.00000000       0.00000000       0.00000000
Nb      32.51012467      15.95544755       1.09009805  T       0.00000000       0.00000000       0.00000000
Nb      31.13107701      18.25409544      -0.87685534  T       0.00000000       0.00000000       0.00000000
Nb      33.86941937      18.31205496       0.14053432  T       0.00000000       0.00000000       0.00000000
Nb      36.59475211      18.34673857       1.14069393  T       0.00000000       0.00000000       0.00000000
Nb      35.22891053      20.66937749      -0.80784596  T       0.00000000       0.00000000       0.00000000
Nb      37.95312747      20.70203938       0.19307908  T       0.00000000       0.00000000       0.00000000
Nb      32.49033161      20.60972908       1.04783710  T       0.00000000       0.00000000       0.00000000
Nb      31.09130207      22.87656723      -0.94844324  T       0.00000000       0.00000000       0.00000000
Nb      33.85007114      22.96656004       0.09788652  T       0.00000000       0.00000000       0.00000000
Nb      36.58087695      23.01124116       1.10718121  F       0.00000001       0.00000002      -0.00000007
Nb      35.18510654      25.30608847      -0.87746943  F       0.00000003       0.00000000      -0.00000013
Nb      37.92955474      25.35944234       0.14593698  F       0.00000002      -0.00000001      -0.00000019
Nb      32.43010632      25.22722174       0.96532021  F       0.00000002      -0.00000000      -0.00000007
Nb      31.02162154      27.49420088      -1.03192745  F       0.00000003      -0.00000001      -0.00000011
Nb      33.77577569      27.57672699       0.00345152  F       0.00000003       0.00000002      -0.00000017
Nb      36.53269668      27.64833097       1.03804480  F       0.00000002       0.00000004      -0.00000022
Nb      35.12950578      29.92050042      -0.95875021  F       0.00000004       0.00000005      -0.00000023
Nb      37.88957953      29.98818737       0.08323874  F       0.00000004       0.00000012      -0.00000026
Nb      32.37300657      29.84617098       0.88194604  F       0.00000003      -0.00000000      -0.00000018
Nb      30.98640993      32.13242024      -1.11368482  F      -0.00000001      -0.00000003      -0.00000019
Nb      33.73313450      32.19220320      -0.08866429  F      -0.00000001       0.00000000      -0.00000021
Nb      36.49187581      32.26034531       0.95341704  F       0.00000002      -0.00000004      -0.00000024
Nb      35.10536793      34.53338552      -1.07023625  F      -0.00000009       0.00000012      -0.00000018
Nb      37.86494570      34.59604666      -0.01337799  F      -0.00000014       0.00000009      -0.00000019
Nb      32.35844508      34.47942559       0.77584620  F      -0.00000006       0.00000001      -0.00000020
Nb      31.01759346      36.78946931      -1.23679405  F      -0.00000011      -0.00000005      -0.00000022
Nb      33.74859729      36.82414449      -0.23111273  F      -0.00000006      -0.00000003      -0.00000021
Nb      36.49222317      36.87347207       0.80506418  F      -0.00000005       0.00000012      -0.00000017
Nb      35.15557179      39.17120289      -1.26954252  F      -0.00000011      -0.00000011      -0.00000020
Nb      37.89201619      39.21540067      -0.23829881  F       0.00000008      -0.00000028      -0.00000024
Nb      32.43137555      39.13908705       0.60935445  F      -0.00000019       0.00000001      -0.00000022
Nb      31.14720952      41.47291633      -1.41277415  F      -0.00000012      -0.00000007      -0.00000029
Nb      33.85862603      41.49567630      -0.44835604  F      -0.00000021       0.00000011      -0.00000020
Nb      36.56894823      41.52791547       0.52057102  F      -0.00000024       0.00000018      -0.00000011
Nb      35.28337438      43.86662325       1.33917962  F      -0.00000002      -0.00000009      -0.00000023
Nb      37.97940194      43.90923304       2.25667926  F      -0.00000016       0.00000019      -0.00000008
Nb      32.58157686      43.83596953       3.27876922  F      -0.00000004      -0.00000020      -0.00000033
Nb      31.29947766      46.18277979       1.28114023  F      -0.00000014      -0.00000003      -0.00000036
Nb      33.99820394      46.21307992       2.20432303  F      -0.00000001      -0.00000020      -0.00000032
Nb      36.68891858      46.25660700       3.10352885  F       0.00000020      -0.00000028      -0.00000022
Nb      35.38001341      48.60962732       1.12310195  F       0.00000005      -0.00000016      -0.00000030
Nb      38.05348119      48.66444941       1.98685723  F       0.00000024      -0.00000024      -0.00000023
Nb      32.69403677      48.56370205       3.10180412  F      -0.00000006      -0.00000009      -0.00000037
Nb      31.36781797      50.91506743       1.14592646  F       0.00000011      -0.00000019      -0.00000037
Nb      34.05026695      50.96561825       2.04566319  F       0.00000002      -0.00000021      -0.00000037
Nb      36.71932767      51.02785449       2.92373385  F       0.00000011      -0.00000020      -0.00000031
Nb      35.37458373      53.38761848       0.99285975  F       0.00000002      -0.00000023      -0.00000034
Nb      38.03613302      53.45587410       1.86465829  F       0.00000003      -0.00000020      -0.00000031
Nb      32.70581332      53.31917084       2.98286985  F       0.00000009      -0.00000019      -0.00000032
Nb      31.35111925      55.66670964       1.05293063  F       0.00000004      -0.00000008      -0.00000021
Nb      34.02059016      55.74229157       1.94138091  F       0.00000001      -0.00000015      -0.00000026
Nb      36.68456606      55.81578613       2.82283426  F      -0.00000006      -0.00000016      -0.00000029
Nb      35.32455761      58.17140214       0.90037362  F      -0.00000006      -0.00000010      -0.00000019
Nb      37.99691850      58.23153734       1.78845062  F      -0.00000012      -0.00000007      -0.00000023
Nb      32.65889564      58.09144648       2.89110970  F      -0.00000001      -0.00000007      -0.00000014
Nb      31.28360523      60.42970291       0.96638049  T       0.00000000       0.00000000       0.00000000
Nb      33.95722281      60.52172598       1.84847268  F      -0.00000003      -0.00000003      -0.00000007
Nb      36.63551810      60.58455749       2.74254242  F      -0.00000007      -0.00000004      -0.00000011
Nb      35.27184171      62.93245602       0.81311487  T       0.00000000       0.00000000       0.00000000
Nb      37.96909378      62.96848954       1.72639060  T       0.00000000       0.00000000       0.00000000
Nb      32.59106261      62.86637519       2.79778264  T       0.00000000       0.00000000       0.00000000
Nb      31.23864266      65.20765730       0.88732929  T       0.00000000       0.00000000       0.00000000
Nb      33.92006548      65.27118533       1.78229011  T       0.00000000       0.00000000       0.00000000
Nb      36.61615858      65.30917866       2.69646424  T       0.00000000       0.00000000       0.00000000
Nb      35.26327449      67.64982366       0.78930463  T       0.00000000       0.00000000       0.00000000
Nb      37.96664068      67.67157354       1.71597286  T       0.00000000       0.00000000       0.00000000
Nb      32.56804023      67.61075250       2.75018628  T       0.00000000       0.00000000       0.00000000
Nb      31.21575559      69.95111591       0.84104968  T       0.00000000       0.00000000       0.00000000
Nb      33.91039098      69.99064861       1.75710085  T       0.00000000       0.00000000       0.00000000
Nb      36.61288834      70.01440257       2.68417771  T       0.00000000       0.00000000       0.00000000
Nb      37.96531658      72.37159603       1.70935159  T       0.00000000       0.00000000       0.00000000
Nb      39.31367687      13.66990727      -0.74090455  T       0.00000000       0.00000000       0.00000000
Nb      42.02806973      13.67356403       0.23966398  T       0.00000000       0.00000000       0.00000000
Nb      44.74246259      13.66990727       1.22023250  T       0.00000000       0.00000000       0.00000000
Nb      43.38531830      16.02053846      -0.70717583  T       0.00000000       0.00000000       0.00000000
Nb      46.10083086      16.01153086       0.27668554  T       0.00000000       0.00000000       0.00000000
Nb      40.67082116      16.02053846       1.18650378  T       0.00000000       0.00000000       0.00000000
Nb      39.31287131      18.36428684      -0.74557889  T       0.00000000       0.00000000       0.00000000
Nb      42.02806973      18.36961650       0.23966398  T       0.00000000       0.00000000       0.00000000
Nb      44.74326815      18.36428684       1.22490684  T       0.00000000       0.00000000       0.00000000
Nb      43.38574125      20.71591611      -0.70444954  T       0.00000000       0.00000000       0.00000000
Nb      46.10301199      20.70203938       0.28624888  T       0.00000000       0.00000000       0.00000000
Nb      40.67039821      20.71591611       1.18377749  T       0.00000000       0.00000000       0.00000000
Nb      39.30787153      23.04429043      -0.76454023  F      -0.00000001       0.00000003      -0.00000011
Nb      42.02940577      23.05605035       0.23595056  F      -0.00000001       0.00000001      -0.00000011
Nb      44.75017189      23.04696192       1.23669083  F       0.00000000      -0.00000001      -0.00000010
Nb      43.39460814      25.39269987      -0.70012202  F       0.00000003      -0.00000001      -0.00000021
Nb      46.12752309      25.36677595       0.31745292  F       0.00000005       0.00000001      -0.00000017
Nb      40.66407065      25.38962188       1.16190340  F       0.00000002      -0.00000003      -0.00000022
Nb      39.28334598      27.70062107      -0.80591946  F       0.00000004       0.00000002      -0.00000027
Nb      42.02796727      27.72361844       0.22440960  F       0.00000008      -0.00000004      -0.00000029
Nb      44.77170912      27.70959020       1.25614631  F       0.00000009      -0.00000007      -0.00000027
Nb      43.40255398      30.04111739      -0.69615524  F       0.00000003      -0.00000005      -0.00000029
Nb      46.15950110      30.00396943       0.35533596  F       0.00000009      -0.00000012      -0.00000028
Nb      40.64733227      30.03455335       1.12962641  F       0.00000001       0.00000011      -0.00000028
Nb      39.25637959      32.32302212      -0.86553134  F       0.00000002      -0.00000012      -0.00000026
Nb      42.02074727      32.35544163       0.20596189  F      -0.00000004      -0.00000009      -0.00000025
Nb      44.78642480      32.33732278       1.28207296  F      -0.00000000      -0.00000001      -0.00000027
Nb      43.40137601      34.65612183      -0.68884568  F       0.00000005      -0.00000011      -0.00000026
Nb      46.17479915      34.61501754       0.41484716  F      -0.00000004      -0.00000011      -0.00000027
Nb      40.63202887      34.65049172       1.07253236  F      -0.00000000      -0.00000012      -0.00000024
Nb      39.24727724      36.92952233      -0.98544018  F      -0.00000020       0.00000037      -0.00000015
Nb      42.01598153      36.96612902       0.16626041  F      -0.00000008       0.00000017      -0.00000019
Nb      44.78581620      36.93877750       1.34093373  F      -0.00000015      -0.00000026      -0.00000023
Nb      43.39862579      39.23388554      -0.63974068  F      -0.00000025      -0.00000017      -0.00000013
Nb      46.14851443      39.22193765       0.56715084  F      -0.00000000      -0.00000002      -0.00000034
Nb      40.64510546      39.26528166       0.88701148  F      -0.00000010      -0.00000006      -0.00000027
Nb      39.27897152      41.57798860      -1.38561192  F       0.00000011      -0.00000010      -0.00000017
Nb      41.98896713      41.64721151      -0.37828801  F      -0.00000003       0.00000011      -0.00000062
Nb      44.71593902      41.54497947       1.57232043  F      -0.00000007      -0.00000012      -0.00000076
Nb      43.42000754      43.94869026       0.59254857  F       0.00000045       0.00000000      -0.00000067
Nb      46.09083190      43.93776697       1.21286199  F      -0.00000001       0.00000011       0.00000008
Nb      40.65223811      43.95934328       3.13057464  F       0.00000015       0.00000002       0.00000010
Nb      39.37348242      46.29965727       1.07633345  F       0.00000001      -0.00000009      -0.00000012
Nb      42.04322362      46.32960030       1.80809959  F       0.00000025      -0.00000018      -0.00000020
Nb      44.71776736      46.33284626       2.43872756  F       0.00000024       0.00000006      -0.00000019
Nb      43.36877432      48.73214173       0.69082268  F       0.00000026       0.00000005      -0.00000020
Nb      46.02819097      48.70442781       1.46251234  F       0.00000008       0.00000019      -0.00000023
Nb      40.71423618      48.71665065       2.80718652  F       0.00000003      -0.00000008      -0.00000022
Nb      39.37866532      51.08956543       0.90151950  F       0.00000010      -0.00000017      -0.00000028
Nb      42.03582061      51.12615257       1.72668385  F       0.00000003       0.00000002      -0.00000027
Nb      44.69378324      51.11747795       2.53804478  F       0.00000008       0.00000014      -0.00000026
Nb      43.36250819      53.51791090       0.69471357  F      -0.00000006       0.00000007      -0.00000030
Nb      46.02849283      53.48343264       1.54288312  F      -0.00000007       0.00000021      -0.00000029
Nb      40.69773240      53.50612163       2.72305409  F      -0.00000004      -0.00000010      -0.00000031
Nb      39.35182760      55.87325033       0.82406642  F      -0.00000010      -0.00000010      -0.00000030
Nb      42.02575482      55.90076508       1.69794744  F      -0.00000015       0.00000001      -0.00000030
Nb      44.70229499      55.88822670       2.56950503  F      -0.00000014       0.00000013      -0.00000028
Nb      43.36912687      58.27154200       0.69781122  F      -0.00000018       0.00000006      -0.00000024
Nb      46.05598608      58.24297467       1.58842222  F      -0.00000015       0.00000011      -0.00000021
Nb      40.67977881      58.26674590       2.68045301  F      -0.00000017      -0.00000002      -0.00000024
Nb      39.32567042      60.62112748       0.77118273  F      -0.00000011      -0.00000002      -0.00000013
Nb      42.02514519      60.63444455       1.68238208  F      -0.00000013       0.00000001      -0.00000014
Nb      44.72605074      60.62493210       2.59362710  F      -0.00000012       0.00000004      -0.00000013
Nb      43.38179055      62.98358480       0.70386509  T       0.00000000       0.00000000       0.00000000
Nb      46.08704568      62.96848954       1.62890507  T       0.00000000       0.00000000       0.00000000
Nb      40.67434891      62.98358480       2.65143059  T       0.00000000       0.00000000       0.00000000
Nb      39.32047389      65.32816397       0.74656839  T       0.00000000       0.00000000       0.00000000
Nb      42.02806973      65.33388548       1.67764784  T       0.00000000       0.00000000       0.00000000
Nb      44.73566557      65.32816397       2.60872729  T       0.00000000       0.00000000       0.00000000