497
Lattice="94.16566508696079 0.0 0.0 0.0 81.54985812956542 0.0 0.0 0.0 2.7743825140804708" Properties=species:S:1:pos:R:3:fix_mask:L:1:forces:R:3 energy=-6179.227994451001 pbc="T T T"
W       20.95168841      28.69455684      -0.27826269  T       0.00000000       0.00000000       0.00000000
W       19.64062421      30.95984560       0.60898111  T       0.00000000       0.00000000       0.00000000
W       18.32834989      33.22482433      -1.27719323  T       0.00000000       0.00000000       0.00000000
W       20.94537699      33.22492170      -0.34245654  T       0.00000000       0.00000000       0.00000000
W       19.63201093      35.48979509       0.54384684  T       0.00000000       0.00000000       0.00000000
W       18.31807969      37.75473402      -1.34224557  T       0.00000000       0.00000000       0.00000000
W       20.93453261      37.75476611      -0.41319279  T       0.00000000       0.00000000       0.00000000
W       19.61999947      40.01984996       0.47419206  T       0.00000000       0.00000000       0.00000000
W       18.30588833      42.28515575       1.36465258  T       0.00000000       0.00000000       0.00000000
W       20.92121335      42.28516448       2.28729684  T       0.00000000       0.00000000       0.00000000
W       19.60742059      44.55066549       3.17824027  T       0.00000000       0.00000000       0.00000000
W       18.29470458      46.81624158       1.29847565  T       0.00000000       0.00000000       0.00000000
W       20.90920102      46.81632926       2.21510809  T       0.00000000       0.00000000       0.00000000
W       19.59748416      49.08188809       3.11137536  T       0.00000000       0.00000000       0.00000000
W       20.90131935      51.34735725       2.14863936  T       0.00000000       0.00000000       0.00000000
W       26.18197348      19.62583201      -1.05192018  T       0.00000000       0.00000000       0.00000000
W       28.79559818      19.62274641      -0.09939843  T       0.00000000       0.00000000       0.00000000
W       24.87621822      21.89439281      -0.16418258  T       0.00000000       0.00000000       0.00000000
W       27.49056637      21.89221712       0.78619975  T       0.00000000       0.00000000       0.00000000
W       26.18463016      24.16070217      -1.10384587  T       0.00000000       0.00000000       0.00000000
W       28.79919093      24.15869352      -0.15224822  T       0.00000000       0.00000000       0.00000000
W       23.56943051      24.16201554       0.72277974  T       0.00000000       0.00000000       0.00000000
W       22.26130506      26.42869172      -1.16497939  T       0.00000000       0.00000000       0.00000000
W       24.87733071      26.42806619      -0.22021799  T       0.00000000       0.00000000       0.00000000
W       27.49290446      26.42700429       0.72808925  T       0.00000000       0.00000000       0.00000000
W       26.18481577      28.69399475      -1.16651889  T       0.00000000       0.00000000       0.00000000
W       28.80088581      28.69323788      -0.21794775  T       0.00000000       0.00000000       0.00000000
W       23.56835551      28.69438019       0.66325290  T       0.00000000       0.00000000       0.00000000
W       22.25763555      30.95988850      -1.22726646  T       0.00000000       0.00000000       0.00000000
W       24.87465919      30.95987038      -0.28659417  T       0.00000000       0.00000000       0.00000000
W       27.49160326      30.95972212       0.65736985  T       0.00000000       0.00000000       0.00000000
W       26.17985113      33.22511457      -1.24102281  T       0.00000000       0.00000000       0.00000000
W       28.79144834      33.22248348      -0.30167557  F       0.00000003       0.00000010      -0.00000007
W       23.56254640      33.22502322       0.59419703  T       0.00000000       0.00000000       0.00000000
W       22.24894488      35.48987955      -1.29781174  T       0.00000000       0.00000000       0.00000000
W       24.86608006      35.48998262      -0.36340534  T       0.00000000       0.00000000       0.00000000
W       27.48345528      35.49010633       0.57327052  T       0.00000000       0.00000000       0.00000000
W       26.16791781      37.75486358      -1.32649505  T       0.00000000       0.00000000       0.00000000
W       28.77959987      37.75483806      -0.39948626  F      -0.00000002       0.00000001       0.00000008
W       23.55113030      37.75480792       0.51674851  T       0.00000000       0.00000000       0.00000000
W       22.23592804      40.01985253      -1.37421181  T       0.00000000       0.00000000       0.00000000
W       24.85190468      40.01985600      -0.44796799  T       0.00000000       0.00000000       0.00000000
W       27.46097284      40.01961391       0.47321271  F      -0.00000047       0.00000003      -0.00000012
W       26.15159365      42.28519190       1.35668051  T       0.00000000       0.00000000       0.00000000
W       28.75999480      42.28612259       2.27167216  F       0.00000021       0.00000014      -0.00000013
W       23.53645774      42.28517607       3.20948726  T       0.00000000       0.00000000       0.00000000
W       22.22216495      44.55071843       1.32287264  T       0.00000000       0.00000000       0.00000000
W       24.83672197      44.55078684       2.24063174  T       0.00000000       0.00000000       0.00000000
W       27.44340078      44.55215067       3.15342174  F       0.00000002       0.00000004      -0.00000003
W       26.13763658      46.81655121       1.26860828  T       0.00000000       0.00000000       0.00000000
W       28.74570387      46.81786812       2.17716218  F       0.00000049       0.00000015      -0.00000005
W       23.52352017      46.81643270       3.13012061  T       0.00000000       0.00000000       0.00000000
W       22.21181779      49.08197911       1.25010765  T       0.00000000       0.00000000       0.00000000
W       24.82604743      49.08205384       2.16091808  T       0.00000000       0.00000000       0.00000000
W       27.44021696      49.08207639       3.06870144  T       0.00000000       0.00000000       0.00000000
W       26.13040654      51.34716791       1.19039817  T       0.00000000       0.00000000       0.00000000
W       28.74522552      51.34676887       2.09316687  T       0.00000000       0.00000000       0.00000000
W       23.51582057      51.34732466       3.05818383  T       0.00000000       0.00000000       0.00000000
W       22.20655724      53.61237673       1.18511091  T       0.00000000       0.00000000       0.00000000
W       24.82157504      53.61200694       2.09116241  T       0.00000000       0.00000000       0.00000000
W       27.43693749      53.61130969       2.99371285  T       0.00000000       0.00000000       0.00000000
W       26.12916327      55.87570063       1.12401098  T       0.00000000       0.00000000       0.00000000
W       28.74555606      55.87413415       2.02285665  T       0.00000000       0.00000000       0.00000000
W       23.51335888      55.87666796       2.99563397  T       0.00000000       0.00000000       0.00000000
W       24.82166532      58.14002319       2.03189907  T       0.00000000       0.00000000       0.00000000
W       27.43837155      58.13822633       2.93169421  T       0.00000000       0.00000000       0.00000000
W       26.13122162      60.40237158       1.06874710  T       0.00000000       0.00000000       0.00000000
W       28.74876668      60.39962270       1.96603659  T       0.00000000       0.00000000       0.00000000
W       27.44164800      62.66380773       2.88102328  T       0.00000000       0.00000000       0.00000000
W       34.01746131      15.07696521      -0.91830618  T       0.00000000       0.00000000       0.00000000
W       36.63007303      15.07129774       0.04269244  T       0.00000000       0.00000000       0.00000000
W       30.10020839      17.35259493      -0.98677662  T       0.00000000       0.00000000       0.00000000
W       32.71288594      17.34778817      -0.02921571  T       0.00000000       0.00000000       0.00000000
W       35.32526315      17.34213220       0.93195311  T       0.00000000       0.00000000       0.00000000
W       34.02101532      19.61349640      -0.95693767  T       0.00000000       0.00000000       0.00000000
W       36.63305342      19.60727498       0.00798363  T       0.00000000       0.00000000       0.00000000
W       31.40859359      19.61867355       0.85692624  T       0.00000000       0.00000000       0.00000000
W       30.10421149      21.88913718      -1.03386694  T       0.00000000       0.00000000       0.00000000
W       32.71707715      21.88489433      -0.07497448  T       0.00000000       0.00000000       0.00000000
W       35.32920394      21.87929501       0.88907351  T       0.00000000       0.00000000       0.00000000
W       34.02568521      24.15129435      -1.00851490  T       0.00000000       0.00000000       0.00000000
W       36.63492356      24.14061966      -0.03894290  F      -0.00000030      -0.00000022       0.00000007
W       31.41292513      24.15568079       0.80401512  T       0.00000000       0.00000000       0.00000000
W       30.10779919      26.42524411      -1.09354238  T       0.00000000       0.00000000       0.00000000
W       32.72173681      26.42239258      -0.13521177  T       0.00000000       0.00000000       0.00000000
W       35.33322218      26.41416136       0.82893354  F       0.00000013      -0.00000002       0.00000015
W       34.02755516      28.68577669      -1.08137993  F      -0.00000012      -0.00000035       0.00000003
W       36.64153774      28.68140553      -0.11512445  F      -0.00000043       0.00000012      -0.00000001
W       31.41194456      28.68782396       0.73402211  F      -0.00000010       0.00000016      -0.00000003
W       30.10351989      30.95608354      -1.17155472  F       0.00000030      -0.00000012      -0.00000024
W       32.71912376      30.95348237      -0.22011426  F      -0.00000021       0.00000010      -0.00000004
W       35.33597879      30.95240889       0.73922310  F      -0.00000020      -0.00000011       0.00000005
W       34.02564750      33.21990824      -1.18205694  F      -0.00000028       0.00000014       0.00000019
W       36.64342022      33.21921152      -0.22287315  F       0.00000045       0.00000025       0.00000025
W       31.40809174      33.22105093       0.64249340  F       0.00000004       0.00000008       0.00000029
W       30.09563922      35.48739434      -1.26788429  F       0.00000001       0.00000031       0.00000008
W       32.71272858      35.48677208      -0.32703488  F      -0.00000001       0.00000000       0.00000005
W       35.33031285      35.48621327       0.61903022  F      -0.00000027      -0.00000020       0.00000029
W       34.01164542      37.75278724      -1.30736517  F       0.00000017       0.00000018       0.00000032
W       36.62859909      37.75238372      -0.36844358  F      -0.00000038       0.00000011       0.00000003
W       31.39505454      37.75303191       0.53250680  F      -0.00000020      -0.00000005      -0.00000008
W       30.07598970      40.01997358      -1.37542007  F       0.00000009      -0.00000003      -0.00000006
W       32.69116908      40.01919489      -0.45065549  F       0.00000015       0.00000011       0.00000001
W       35.30654098      40.01911540       0.47512863  F       0.00000019      -0.00000050       0.00000016
W       33.98640215      42.28603092       1.33305790  F      -0.00000040       0.00000012       0.00000005
W       36.59917369      42.28637398       2.24784331  F      -0.00000031       0.00000044       0.00000013
W       31.37328755      42.28624517       3.19083502  F       0.00000014      -0.00000018      -0.00000001
W       30.05651391      44.55249237       1.29307412  F       0.00000003       0.00000037      -0.00000009
W       32.67047115      44.55300497       2.20381576  F      -0.00000021       0.00000007      -0.00000003
W       35.28395102      44.55319541       3.11104631  F       0.00000026      -0.00000032      -0.00000018
W       33.97226395      46.81934671       1.21370199  F       0.00000011      -0.00000009      -0.00000022
W       36.58624049      46.81953996       2.11132577  F      -0.00000004       0.00000014       0.00000007
W       31.35835125      46.81898933       3.08463387  F      -0.00000021       0.00000015      -0.00000024
W       30.04956895      49.08396122       1.19901970  F       0.00000022      -0.00000015       0.00000017
W       32.66306486      49.08467746       2.10033182  F       0.00000016       0.00000017      -0.00000017
W       35.27823880      49.08445071       2.99636109  F       0.00000009       0.00000019       0.00000032
W       33.97096072      51.34879605       1.11539575  F      -0.00000017       0.00000003      -0.00000003
W       36.58789141      51.34716096       2.00418776  F      -0.00000001       0.00000031       0.00000019
W       31.35625556      51.34904879       2.99391574  F      -0.00000002      -0.00000011       0.00000014
W       30.05287600      53.61005295       1.11741132  T       0.00000000       0.00000000       0.00000000
W       32.66560919      53.61234315       2.01482351  F       0.00000050      -0.00000005       0.00000030
W       35.28171980      53.61099934       2.90469662  F      -0.00000012       0.00000008       0.00000007
W       33.97584111      55.87395351       1.03648986  F       0.00000018      -0.00000014       0.00000014
W       36.59597522      55.86779268       1.92235606  F      -0.00000024       0.00000014       0.00000033
W       31.36277280      55.87164702       2.91683602  T       0.00000000       0.00000000       0.00000000
W       30.05580461      58.13556707       1.05297697  T       0.00000000       0.00000000       0.00000000
W       32.67410939      58.13172532       1.94370298  T       0.00000000       0.00000000       0.00000000
W       35.29333245      58.12638728       2.82866546  T       0.00000000       0.00000000       0.00000000
W       33.98599752      60.39085495       0.97335585  T       0.00000000       0.00000000       0.00000000
W       36.60553292      60.38458233       1.85680491  T       0.00000000       0.00000000       0.00000000
W       31.36702518      60.39585159       2.85921980  T       0.00000000       0.00000000       0.00000000
W       30.05982571      62.66014324       1.00199914  T       0.00000000       0.00000000       0.00000000
W       32.67856788      62.65546333       1.89351432  T       0.00000000       0.00000000       0.00000000
W       35.29774408      62.64975653       2.78092041  T       0.00000000       0.00000000       0.00000000
W       33.98994336      64.91494679       0.93076907  T       0.00000000       0.00000000       0.00000000
W       36.60896206      64.90905327       1.81803978  T       0.00000000       0.00000000       0.00000000
W       31.37106647      64.92017938       2.81447725  T       0.00000000       0.00000000       0.00000000
W       35.30087505      67.17476418       2.74565827  T       0.00000000       0.00000000       0.00000000
W       37.93549233      12.80127316      -0.85029674  T       0.00000000       0.00000000       0.00000000
W       40.54877268      12.79631532       0.11189235  T       0.00000000       0.00000000       0.00000000
W       43.16243470      12.79223426       1.07560355  T       0.00000000       0.00000000       0.00000000
W       41.85602471      15.06035897      -0.80210877  T       0.00000000       0.00000000       0.00000000
W       44.46963934      15.05636734       0.16543324  T       0.00000000       0.00000000       0.00000000
W       39.24286294      15.06556318       1.00636967  T       0.00000000       0.00000000       0.00000000
W       37.93758905      17.33591176      -0.87773850  T       0.00000000       0.00000000       0.00000000
W       40.55015761      17.32969231       0.09011131  T       0.00000000       0.00000000       0.00000000
W       43.16320141      17.32428378       1.06049284  T       0.00000000       0.00000000       0.00000000
W       41.85735979      19.59362978      -0.82419868  T       0.00000000       0.00000000       0.00000000
W       44.47029033      19.58812100       0.15166395  T       0.00000000       0.00000000       0.00000000
W       39.24503839      19.60038886       0.97719742  T       0.00000000       0.00000000       0.00000000
W       37.94082809      21.87238449      -0.91577290  T       0.00000000       0.00000000       0.00000000
W       40.54931203      21.85861652       0.05985068  F      -0.00000027      -0.00000029       0.00000031
W       43.16155030      21.85232708       1.03756113  F       0.00000027      -0.00000002       0.00000005
W       41.85637295      24.12291547      -0.86032934  F       0.00000022       0.00000018       0.00000003
W       44.46828968      24.11491934       0.12571619  F      -0.00000005      -0.00000017      -0.00000011
W       39.24696762      24.13387936       0.93481156  F       0.00000008       0.00000030       0.00000011
W       37.94451567      26.40742568      -0.97443967  F      -0.00000000      -0.00000006      -0.00000005
W       40.55547002      26.40009414       0.00662377  F      -0.00000042       0.00000004      -0.00000005
W       43.16417873      26.38814125       0.99612889  F      -0.00000023       0.00000029      -0.00000024
W       41.86428638      28.66751501      -0.92150705  F       0.00000008      -0.00000021      -0.00000029
W       44.47163406      28.65279625       0.08107274  F      -0.00000026      -0.00000011      -0.00000036
W       39.25395972      28.67560082       0.86241883  F       0.00000008       0.00000034      -0.00000014
W       37.95121031      30.94912325      -1.06507595  F      -0.00000030       0.00000006       0.00000013
W       40.56446925      30.94454974      -0.08078722  F       0.00000025       0.00000002      -0.00000027
W       43.17462652      30.93572993       0.92283324  F      -0.00000051       0.00000019      -0.00000025
W       41.87507552      33.21395474      -1.03298186  F      -0.00000014      -0.00000006      -0.00000026
W       44.48521649      33.20586196      -0.01059237  F       0.00000015      -0.00000011      -0.00000023
W       39.25996238      33.21714691       0.74924589  F      -0.00000068       0.00000020       0.00000018
W       37.94876942      35.48597278      -1.19958235  F       0.00000025      -0.00000002       0.00000002
W       40.56738075      35.48450461      -0.22904471  F       0.00000037      -0.00000011       0.00000006
W       43.18648480      35.48416576       0.76712388  F      -0.00000048      -0.00000012      -0.00000003
W       41.86362676      37.75118111      -1.23664273  F       0.00000003      -0.00000004       0.00000019
W       44.48485763      37.75401574      -0.25134743  F      -0.00000001       0.00000056       0.00000007
W       39.24618221      37.75241551       0.57847025  F       0.00000005       0.00000029       0.00000034
W       37.92149861      40.01899938      -1.37257978  F      -0.00000004      -0.00000038       0.00000021
W       40.53626507      40.01998044      -0.44308460  F      -0.00000021      -0.00000008      -0.00000008
W       43.14924810      40.01794121       0.48909592  F      -0.00000017       0.00000005       0.00000006
W       41.82120264      42.28856547       1.29255093  F       0.00000004       0.00000002      -0.00000025
W       44.42453454      42.28903606       2.20098964  F      -0.00000008      -0.00000003      -0.00000019
W       39.21063025      42.28695234       3.15895210  F      -0.00000015      -0.00000017      -0.00000007
W       37.89699633      44.55404549       1.23853788  F      -0.00000060      -0.00000025       0.00000005
W       40.50967089      44.55447841       2.13213985  F       0.00000013      -0.00000014      -0.00000027
W       43.12282752      44.55655487       3.01451894  F      -0.00000022      -0.00000023      -0.00000063
W       41.81643163      46.81867442       1.10099453  F       0.00000041      -0.00000039      -0.00000040
W       44.43964067      46.81089476       1.94389811  F      -0.00000012      -0.00000015      -0.00000014
W       39.20072046      46.81961924       3.00054350  F      -0.00000039       0.00000001      -0.00000015
W       37.89443986      49.08349676       1.10994163  F       0.00000001      -0.00000004      -0.00000008
W       40.51304350      49.08078419       1.98599848  F      -0.00000025       0.00000053       0.00000018
W       43.13583955      49.07172000       2.83994244  F       0.00000013      -0.00000036       0.00000022
W       41.83005312      51.33486850       0.97295356  F      -0.00000031       0.00000044       0.00000028
W       44.45616955      51.31771583       1.81683352  F       0.00000065       0.00000021       0.00000021
W       39.20756856      51.34291629       2.88335362  F       0.00000015       0.00000014       0.00000022
W       37.90181142      53.60523392       1.01291189  F      -0.00000016       0.00000014       0.00000026
W       40.52354000      53.59844564       1.88443774  F       0.00000012       0.00000000       0.00000032
W       43.14779825      53.58539137       2.74286554  F       0.00000001       0.00000024       0.00000035
W       41.83965171      55.85164186       0.89231659  F       0.00000008      -0.00000001       0.00000009
W       44.46130385      55.84190256       1.75063058  F       0.00000005       0.00000008       0.00000012
W       39.21626590      55.86202270       2.79845980  F      -0.00000009      -0.00000003       0.00000021
W       37.90978756      58.12602825       0.94150563  F      -0.00000004       0.00000045       0.00000008
W       40.53075869      58.11589061       1.81558887  F       0.00000016       0.00000022      -0.00000001
W       43.15261260      58.10871550       2.68380974  F      -0.00000024       0.00000025       0.00000025
W       41.84478188      60.36991819       0.83439244  T       0.00000000       0.00000000       0.00000000
W       44.46258713      60.36971801       1.71059029  F       0.00000030       0.00000000      -0.00000017
W       39.22528682      60.37732927       2.73512431  T       0.00000000       0.00000000       0.00000000
W       37.91709453      62.64325169       0.88980840  T       0.00000000       0.00000000       0.00000000
W       40.53626876      62.63652675       1.76926061  T       0.00000000       0.00000000       0.00000000
W       43.15495047      62.63051111       2.64557945  T       0.00000000       0.00000000       0.00000000
W       41.84638129      64.89721450       0.80914964  T       0.00000000       0.00000000       0.00000000
W       44.46439913      64.89275454       1.68853628  T       0.00000000       0.00000000       0.00000000
W       39.22785856      64.90291954       2.70213383  T       0.00000000       0.00000000       0.00000000
W       37.91953054      67.16913848       0.85916328  T       0.00000000       0.00000000       0.00000000
W       40.53789917      67.16376679       1.74471698  T       0.00000000       0.00000000       0.00000000
W       43.15585276      67.15926708       2.62843714  T       0.00000000       0.00000000       0.00000000
W       41.84737418      69.42574507       0.79144844  T       0.00000000       0.00000000       0.00000000
W       44.46489058      69.42243345       1.67758634  T       0.00000000       0.00000000       0.00000000
W       39.22949131      69.43017283       2.67848293  T       0.00000000       0.00000000       0.00000000
W       45.77645395      12.78953785      -0.73404489  T       0.00000000       0.00000000       0.00000000
W       48.39068900      12.78859420       0.23119854  T       0.00000000       0.00000000       0.00000000
W       51.00492406      12.78953785       1.19644198  T       0.00000000       0.00000000       0.00000000
W       49.69775324      15.05419317      -0.67156474  T       0.00000000       0.00000000       0.00000000
W       52.31173866      15.05636734       0.29696384  T       0.00000000       0.00000000       0.00000000
W       47.08362476      15.05419317       1.13396183  T       0.00000000       0.00000000       0.00000000
W       45.77677233      17.32056985      -0.74177821  T       0.00000000       0.00000000       0.00000000
W       48.39068900      17.31924411       0.23119854  T       0.00000000       0.00000000       0.00000000
W       51.00460568      17.32056985       1.20417529  T       0.00000000       0.00000000       0.00000000
W       49.69756951      19.58500359      -0.66688893  T       0.00000000       0.00000000       0.00000000
W       52.31108768      19.58812100       0.31073313  T       0.00000000       0.00000000       0.00000000
W       47.08380849      19.58500359       1.12928601  T       0.00000000       0.00000000       0.00000000
W       45.77509694      21.84699126      -0.75597316  F      -0.00000016      -0.00000052      -0.00000013
W       48.38962946      21.84487245       0.22681639  F      -0.00000039      -0.00000007      -0.00000015
W       51.00444383      21.84609724       1.20969295  F       0.00000010      -0.00000001      -0.00000023
W       49.69639523      24.10858543      -0.67004818  F       0.00000037       0.00000001       0.00000003
W       52.31108155      24.11167990       0.31908170  F       0.00000003       0.00000018      -0.00000009
W       47.08176379      24.10962282       1.11447587  F      -0.00000026      -0.00000017      -0.00000011
W       45.77531970      26.37838924      -0.78175225  F       0.00000007       0.00000012      -0.00000016
W       48.38900421      26.37350522       0.21685461  F       0.00000003       0.00000026      -0.00000002
W       51.00381031      26.37432882       1.21557826  F      -0.00000013      -0.00000006      -0.00000008
W       49.69667545      28.63755738      -0.67029090  F      -0.00000003      -0.00000006       0.00000017
W       52.31056996      28.64284419       0.33928621  F       0.00000025      -0.00000023       0.00000023
W       47.08212285      28.64123988       1.09202897  F      -0.00000031      -0.00000019       0.00000030
W       45.77924598      30.91639351      -0.82963427  F      -0.00000008       0.00000017      -0.00000020
W       48.39007016      30.90221143       0.20409160  F      -0.00000007      -0.00000058       0.00000014
W       51.00422977      30.90470561       1.23271142  F      -0.00000042      -0.00000014       0.00000020
W       49.69639898      33.16594043      -0.65835214  F      -0.00000031      -0.00000002       0.00000010
W       52.31073426      33.17486099       0.39055099  F       0.00000007       0.00000024      -0.00000028
W       47.08563421      33.17688207       1.04627307  F      -0.00000057      -0.00000007      -0.00000014
W       45.80177745      35.47832493      -0.95895370  F      -0.00000022      -0.00000070      -0.00000028
W       48.39609527      35.43981939       0.17807436  F       0.00000041      -0.00000013       0.00000007
W       51.00954890      35.42915824       1.30275577  F      -0.00000013      -0.00000018       0.00000012
W       49.69667301      37.69092460      -0.54137992  F      -0.00000010      -0.00000015       0.00000028
W       52.28869271      37.72888326       0.50699212  F       0.00000002      -0.00000030       0.00000004
W       47.09900367      37.75068720       0.80220731  F       0.00000003       0.00000048       0.00000040
W       45.77543551      40.03153718      -1.36515481  F       0.00000004       0.00000002       0.00000001
W       48.38386459      40.04886283      -0.54630211  F      -0.00000014      -0.00000021       0.00000018
W       50.96948916      39.97827608       1.32600394  F       0.00000031      -0.00000039       0.00000003
W       49.74007950      42.25288940       0.38241480  F      -0.00000001       0.00000054       0.00000013
W       52.35611379      42.29375509       1.26101726  F      -0.00000043       0.00000000       0.00000008
W       47.04048446      42.29332142       3.11979396  F       0.00000011       0.00000018       0.00000014
W       45.74369308      44.54558033       1.07524133  F      -0.00000014      -0.00000011       0.00000004
W       48.39315432      44.51372527       1.70822857  F       0.00000002      -0.00000048      -0.00000010
W       51.02957574      44.51983081       2.32611447  F      -0.00000016      -0.00000040       0.00000007
W       49.70412228      46.77616746       0.65637352  F      -0.00000024      -0.00000002      -0.00000043
W       52.33223029      46.80101362       1.40231382  F       0.00000038       0.00000006      -0.00000024
W       47.07502838      46.77335752       2.71632645  F       0.00000004      -0.00000048      -0.00000021
W       45.76597583      49.04862689       0.88693383  F       0.00000048      -0.00000024      -0.00000011
W       48.38861558      49.03529616       1.66913271  F       0.00000005       0.00000028      -0.00000068
W       51.01299766      49.04795387       2.44494332  F      -0.00000002       0.00000019      -0.00000045
W       49.69905741      51.30387053       0.67262419  F      -0.00000010      -0.00000049      -0.00000017
W       52.32323833      51.31471747       1.48452647  F      -0.00000029       0.00000041      -0.00000013
W       47.07913724      51.30527274       2.63876301  F       0.00000002      -0.00000051      -0.00000001
W       45.76999835      53.57401656       0.81229047  F      -0.00000018      -0.00000044       0.00000009
W       48.38991637      53.56944011       1.64593512  F      -0.00000016      -0.00000008       0.00000001
W       51.00990281      53.57167461       2.47548779  F      -0.00000038      -0.00000002      -0.00000011
W       49.70003742      55.83549405       0.67278329  F       0.00000015       0.00000010      -0.00000007
W       52.31944064      55.83966522       1.51848386  F      -0.00000011       0.00000032      -0.00000019
W       47.08081143      55.83640881       2.60124174  F       0.00000022      -0.00000003      -0.00000005