1308
Lattice="120.94175396651991 0.0 0.0 0.0 114.57639849459781 0.0 0.0 0.0 3.1826777359610503" Properties=species:S:1:pos:R:3:fix_mask:L:1:forces:R:3 energy=-13786.10966875612 pbc="T T T"
Mo      15.26421905      48.26012460       1.59133887  T       0.00000000       0.00000000       0.00000000
Mo      15.21305392      51.43521496       1.59133887  T       0.00000000       0.00000000       0.00000000
Mo      15.16135598      54.61345312       1.59133887  T       0.00000000       0.00000000       0.00000000
Mo      18.29143675      57.80021758       1.59133887  T       0.00000000       0.00000000       0.00000000
Mo      18.23589081      60.98527472       1.59133887  T       0.00000000       0.00000000       0.00000000
Mo      18.18087357      64.17399925       1.59133887  T       0.00000000       0.00000000       0.00000000
Mo      18.12679131      67.36620372       1.59133887  T       0.00000000       0.00000000       0.00000000
Mo      18.61310734      38.76408326       1.59133887  T       0.00000000       0.00000000       0.00000000
Mo      18.56308755      41.92914763       1.59133887  T       0.00000000       0.00000000       0.00000000
Mo      16.93797721      43.50763260       0.00000000  T       0.00000000       0.00000000       0.00000000
Mo      18.51099463      45.09674980       1.59133887  T       0.00000000       0.00000000       0.00000000
Mo      16.88670378      46.67756594       0.00000000  T       0.00000000       0.00000000       0.00000000
Mo      18.45732509      48.26735996       1.59133887  T       0.00000000       0.00000000       0.00000000
Mo      16.83423731      49.85051585       0.00000000  T       0.00000000       0.00000000       0.00000000
Mo      18.40255374      51.44133394       1.59133887  T       0.00000000       0.00000000       0.00000000
Mo      16.78098589      53.02673894       0.00000000  T       0.00000000       0.00000000       0.00000000
Mo      18.34712126      54.61891083       1.59133887  T       0.00000000       0.00000000       0.00000000
Mo      16.72732794      56.20639274       0.00000000  T       0.00000000       0.00000000       0.00000000
Mo      21.47330246      57.80590181       1.59133887  T       0.00000000       0.00000000       0.00000000
Mo      19.85352187      59.39512583       0.00000000  T       0.00000000       0.00000000       0.00000000
Mo      21.41341485      60.99135416       1.59133887  T       0.00000000       0.00000000       0.00000000
Mo      19.79612715      62.58236010       0.00000000  T       0.00000000       0.00000000       0.00000000
Mo      21.35419281      64.18105591       1.59133887  T       0.00000000       0.00000000       0.00000000
Mo      19.73954884      65.77344334       0.00000000  T       0.00000000       0.00000000       0.00000000
Mo      21.29614991      67.37475261       1.59133887  T       0.00000000       0.00000000       0.00000000
Mo      19.68425699      68.96809594       0.00000000  T       0.00000000       0.00000000       0.00000000
Mo      21.23983407      70.57204476       1.59133887  T       0.00000000       0.00000000       0.00000000
Mo      19.63075098      72.16591355       0.00000000  T       0.00000000       0.00000000       0.00000000
Mo      21.18581936      73.77239041       1.59133887  T       0.00000000       0.00000000       0.00000000
Mo      21.91349051      32.45827815       1.59133887  T       0.00000000       0.00000000       0.00000000
Mo      21.86757797      35.61787253       1.59133887  T       0.00000000       0.00000000       0.00000000
Mo      20.23983410      37.18989352       0.00000000  T       0.00000000       0.00000000       0.00000000
Mo      21.81792705      38.77860527       1.59133887  T       0.00000000       0.00000000       0.00000000
Mo      20.18977893      40.35274664       0.00000000  T       0.00000000       0.00000000       0.00000000
Mo      21.76504703      41.94129709       1.59133887  T       0.00000000       0.00000000       0.00000000
Mo      20.13711768      43.51791343       0.00000000  T       0.00000000       0.00000000       0.00000000
Mo      21.70953658      45.10670408       1.59133887  T       0.00000000       0.00000000       0.00000000
Mo      20.08240543      46.68599808       0.00000000  T       0.00000000       0.00000000       0.00000000
Mo      21.65202229      48.27546205       1.59133887  T       0.00000000       0.00000000       0.00000000
Mo      20.02619192      49.85748190       0.00000000  T       0.00000000       0.00000000       0.00000000
Mo      21.59311092      51.44805589       1.59133887  T       0.00000000       0.00000000       0.00000000
Mo      19.96899415      53.03271096       0.00000000  T       0.00000000       0.00000000       0.00000000
Mo      21.53336495      54.62481161       1.59133887  T       0.00000000       0.00000000       0.00000000
Mo      19.91128889      56.21189730       0.00000000  T       0.00000000       0.00000000       0.00000000
Mo      24.65501977      57.81205347       1.59133887  T       0.00000000       0.00000000       0.00000000
Mo      23.03296168      59.40117197       0.00000000  T       0.00000000       0.00000000       0.00000000
Mo      24.59005603      60.99800741       1.59133887  T       0.00000000       0.00000000       0.00000000
Mo      22.97094451      62.58918307       0.00000000  T       0.00000000       0.00000000       0.00000000
Mo      24.52594639      64.18894107       1.59133887  T       0.00000000       0.00000000       0.00000000
Mo      22.90996545      65.78165880       0.00000000  T       0.00000000       0.00000000       0.00000000
Mo      24.46335321      67.38450021       1.59133887  T       0.00000000       0.00000000       0.00000000
Mo      22.85062602      68.97821505       0.00000000  T       0.00000000       0.00000000       0.00000000
Mo      24.40298513      70.58412966       1.59133887  T       0.00000000       0.00000000       0.00000000
Mo      22.79356458      72.17829816       0.00000000  T       0.00000000       0.00000000       0.00000000
Mo      24.34557682      73.78708225       1.59133887  T       0.00000000       0.00000000       0.00000000
Mo      22.73942911      75.38119886       0.00000000  T       0.00000000       0.00000000       0.00000000
Mo      24.29183388      76.99245526       1.59133887  T       0.00000000       0.00000000       0.00000000
Mo      22.68882458      78.58609072       0.00000000  T       0.00000000       0.00000000       0.00000000
Mo      24.24235538      80.19926076       1.59133887  T       0.00000000       0.00000000       0.00000000
Mo      25.16679660      29.32274744       1.59133887  T       0.00000000       0.00000000       0.00000000
Mo      23.54033020      30.88972205       0.00000000  T       0.00000000       0.00000000       0.00000000
Mo      25.12469284      32.48023735       1.59133887  T       0.00000000       0.00000000       0.00000000
Mo      23.49601110      34.04802362       0.00000000  T       0.00000000       0.00000000       0.00000000
Mo      25.07758950      35.63751814       1.59133887  T       0.00000000       0.00000000       0.00000000
Mo      23.44731098      37.20684911       0.00000000  T       0.00000000       0.00000000       0.00000000
Mo      25.02580625      38.79557410       1.59133887  T       0.00000000       0.00000000       0.00000000
Mo      23.39467988      40.36712477       0.00000000  T       0.00000000       0.00000000       0.00000000
Mo      24.96990143      41.95546188       1.59133887  T       0.00000000       0.00000000       0.00000000
Mo      23.33872599      43.52976505       0.00000000  T       0.00000000       0.00000000       0.00000000
Mo      24.91060000      45.11819719       1.59133887  T       0.00000000       0.00000000       0.00000000
Mo      23.28014178      46.69558743       0.00000000  T       0.00000000       0.00000000       0.00000000
Mo      24.84870026      48.28465680       1.59133887  T       0.00000000       0.00000000       0.00000000
Mo      23.21963205      49.86525318       0.00000000  T       0.00000000       0.00000000       0.00000000
Mo      24.78275794      51.45431596       1.59133887  F      -0.00031064       0.00038378      -0.00000000
Mo      23.15786455      53.03924019       0.00000000  T       0.00000000       0.00000000       0.00000000
Mo      24.72015583      54.62890591       1.59133887  F       0.00028637       0.00012159      -0.00000000
Mo      23.09545187      56.21784091       0.00000000  T       0.00000000       0.00000000       0.00000000
Mo      27.83248715      57.81486890       1.59133887  F       0.00025676       0.00040979       0.00000000
Mo      26.21181435      59.40776428       0.00000000  T       0.00000000       0.00000000       0.00000000
Mo      27.76243960      61.00280656       1.59133887  F       0.00006940       0.00005064      -0.00000000
Mo      26.14437271      62.59676740       0.00000000  T       0.00000000       0.00000000       0.00000000
Mo      27.69217397      64.19642176       1.59133887  F       0.00024658      -0.00020075      -0.00000000
Mo      26.07827920      65.79100551       0.00000000  T       0.00000000       0.00000000       0.00000000
Mo      27.62785165      67.39579633       1.59133887  T       0.00000000       0.00000000       0.00000000
Mo      26.01432016      68.98993661       0.00000000  T       0.00000000       0.00000000       0.00000000
Mo      27.56292340      70.59832746       1.59133887  T       0.00000000       0.00000000       0.00000000
Mo      25.95332602      72.19278383       0.00000000  T       0.00000000       0.00000000       0.00000000
Mo      27.50187873      73.80441561       1.59133887  T       0.00000000       0.00000000       0.00000000
Mo      25.89611751      75.39856743       0.00000000  T       0.00000000       0.00000000       0.00000000
Mo      27.44558437      77.01282196       1.59133887  T       0.00000000       0.00000000       0.00000000
Mo      25.84341593      78.60617943       0.00000000  T       0.00000000       0.00000000       0.00000000
Mo      27.39469997      80.22225184       1.59133887  T       0.00000000       0.00000000       0.00000000
Mo      25.79574653      81.81449495       0.00000000  T       0.00000000       0.00000000       0.00000000
Mo      27.34958249      83.43150620       1.59133887  T       0.00000000       0.00000000       0.00000000
Mo      28.41638722      26.19193747       1.59133887  T       0.00000000       0.00000000       0.00000000
Mo      26.79233900      27.75698257       0.00000000  T       0.00000000       0.00000000       0.00000000
Mo      28.38052525      29.34969330       1.59133887  T       0.00000000       0.00000000       0.00000000
Mo      26.75307447      30.91426296       0.00000000  T       0.00000000       0.00000000       0.00000000
Mo      28.33878060      32.50561765       1.59133887  T       0.00000000       0.00000000       0.00000000
Mo      26.70828443      34.07052545       0.00000000  T       0.00000000       0.00000000       0.00000000
Mo      28.29097620      35.66055169       1.59133887  T       0.00000000       0.00000000       0.00000000
Mo      26.65807677      37.22673391       0.00000000  T       0.00000000       0.00000000       0.00000000
Mo      28.23729302      38.81564182       1.59133887  T       0.00000000       0.00000000       0.00000000
Mo      26.60287356      40.38403643       0.00000000  T       0.00000000       0.00000000       0.00000000
Mo      28.17657373      41.97118045       1.59133887  F       0.00029192      -0.00028297      -0.00000000
Mo      26.54336645      43.54363838       0.00000000  T       0.00000000       0.00000000       0.00000000
Mo      28.11342727      45.13023804       1.59133887  F      -0.00006119      -0.00019334      -0.00000000
Mo      26.47835996      46.70566388       0.00000000  F       0.00040903       0.00000706       0.00000000
Mo      28.04559688      48.29241477       1.59133887  F       0.00010500      -0.00008272      -0.00000000
Mo      26.41341700      49.87229148       0.00000000  F       0.00036005       0.00017580       0.00000000
Mo      27.97583871      51.46023902       1.59133887  F      -0.00018742       0.00020160       0.00000000
Mo      26.34589130      53.04335033      -0.00000000  F      -0.00005868       0.00015644       0.00000000
Mo      27.90405734      54.63454363       1.59133887  F       0.00028784       0.00021682       0.00000000
Mo      26.27641766      56.22220642       0.00000000  F      -0.00011443       0.00021231      -0.00000000
Mo      31.01133206      57.82044227       1.59133887  F      -0.00086825      -0.00016719       0.00000000
Mo      29.38524873      59.41039002      -0.00000000  F      -0.00021478      -0.00014363       0.00000000
Mo      30.93287507      61.00859412       1.59133887  F      -0.00024959       0.00025771      -0.00000000
Mo      29.31175701      62.60193667       0.00000000  F       0.00004859       0.00000611      -0.00000000
Mo      30.85642704      64.20414336       1.59133887  F      -0.00035954       0.00044308      -0.00000000
Mo      29.24001616      65.79879528      -0.00000000  F       0.00010382       0.00054457       0.00000000
Mo      30.78329573      67.40627352       1.59133887  F      -0.00031576       0.00051103       0.00000000
Mo      29.17121027      69.00285751      -0.00000000  F      -0.00056293      -0.00021190       0.00000000
Mo      30.71450921      70.61399847       1.59133887  F      -0.00030416      -0.00043010      -0.00000000
Mo      29.10936294      72.20999471       0.00000000  T       0.00000000       0.00000000       0.00000000
Mo      30.65404136      73.82515774       1.59133887  T       0.00000000       0.00000000       0.00000000
Mo      29.04904916      75.41915822       0.00000000  T       0.00000000       0.00000000       0.00000000
Mo      30.59545686      77.03696895       1.59133887  T       0.00000000       0.00000000       0.00000000
Mo      28.99454978      78.62975649       0.00000000  T       0.00000000       0.00000000       0.00000000
Mo      30.54376105      80.24907063       1.59133887  T       0.00000000       0.00000000       0.00000000
Mo      28.94634672      81.84037552       0.00000000  T       0.00000000       0.00000000       0.00000000
Mo      30.49911655      83.46005728       1.59133887  T       0.00000000       0.00000000       0.00000000
Mo      28.90452063      85.04984817       0.00000000  T       0.00000000       0.00000000       0.00000000
Mo      30.46123414      86.66893156       1.59133887  T       0.00000000       0.00000000       0.00000000
Mo      31.65795322      23.06167213       1.59133887  T       0.00000000       0.00000000       0.00000000
Mo      30.03840633      24.62703681       0.00000000  T       0.00000000       0.00000000       0.00000000
Mo      31.63002000      26.22244026       1.59133887  T       0.00000000       0.00000000       0.00000000
Mo      30.00638243      27.78597356       0.00000000  T       0.00000000       0.00000000       0.00000000
Mo      31.59622605      29.38009290       1.59133887  T       0.00000000       0.00000000       0.00000000
Mo      29.96835290      30.94235023       0.00000000  T       0.00000000       0.00000000       0.00000000
Mo      31.55575822      32.53493419       1.59133887  T       0.00000000       0.00000000       0.00000000
Mo      29.92381552      34.09677931       0.00000000  T       0.00000000       0.00000000       0.00000000
Mo      31.50805602      35.68770878       1.59133887  T       0.00000000       0.00000000       0.00000000
Mo      29.87261042      37.25027615       0.00000000  T       0.00000000       0.00000000       0.00000000
Mo      31.45267869      38.83731420       1.59133887  F       0.00022462      -0.00017070      -0.00000000
Mo      29.81413816      40.40279689       0.00000000  F      -0.00027925      -0.00043874       0.00000000
Mo      31.38913532      41.98831558       1.59133887  F       0.00031817      -0.00008280       0.00000000
Mo      29.75007835      43.55716436       0.00000000  F      -0.00010749       0.00053362      -0.00000000
Mo      31.31999497      45.14269422       1.59133887  F      -0.00016636      -0.00034010       0.00000000
Mo      29.68118065      46.71581828      -0.00000000  F      -0.00003991       0.00019316       0.00000000
Mo      31.24630220      48.30220414       1.59133887  F      -0.00030115      -0.00043845       0.00000000
Mo      29.60908628      49.87957116       0.00000000  F       0.00008485       0.00012884       0.00000000
Mo      31.16924829      51.46781924       1.59133887  F       0.00027333       0.00027748      -0.00000000
Mo      29.53471204      53.04986736       0.00000000  F       0.00017713       0.00051065      -0.00000000
Mo      31.09041651      54.64041038       1.59133887  F      -0.00032605      -0.00004064       0.00000000
Mo      29.45939038      56.22655604       0.00000000  F      -0.00008949       0.00007283      -0.00000000
Mo      34.18912275      57.82762965       1.59133887  F       0.00105095       0.00127910      -0.00000000
Mo      32.55869162      59.41706893       0.00000000  F       0.00069550       0.00067135       0.00000000
Mo      34.10109131      61.01756503       1.59133887  F       0.00095146       0.00085411      -0.00000000
Mo      32.47676309      62.61021104       0.00000000  F       0.00018077       0.00057662      -0.00000000
Mo      34.01570226      64.21675844       1.59133887  F       0.00000712       0.00081912       0.00000000
Mo      32.39751999      65.81133500      -0.00000000  F      -0.00020666       0.00026790       0.00000000
Mo      33.93449936      67.42388440       1.59133887  F       0.00094201       0.00060094      -0.00000000
Mo      32.32298264      69.01855719       0.00000000  F      -0.00020649       0.00071782      -0.00000000
Mo      33.86043309      70.63639716       1.59133887  F       0.00019312       0.00070827      -0.00000000
Mo      32.25553179      72.23001208       0.00000000  F       0.00041456       0.00091952      -0.00000000
Mo      33.79492562      73.85221999       1.59133887  F      -0.00002512      -0.00028689      -0.00000000
Mo      32.19381274      75.44504367       0.00000000  F       0.00017860       0.00006224      -0.00000000
Mo      33.73741790      77.06763865       1.59133887  F       0.00054121       0.00027717      -0.00000000
Mo      32.14194656      78.65755453       0.00000000  T       0.00000000       0.00000000       0.00000000
Mo      33.68954999      80.28031910       1.59133887  T       0.00000000       0.00000000       0.00000000
Mo      32.09410185      81.87022088       0.00000000  T       0.00000000       0.00000000       0.00000000
Mo      33.64650732      83.49243249       1.59133887  T       0.00000000       0.00000000       0.00000000
Mo      32.05379989      85.08062293       0.00000000  T       0.00000000       0.00000000       0.00000000
Mo      33.61112404      86.70127442       1.59133887  T       0.00000000       0.00000000       0.00000000
Mo      32.02033919      88.28807115       0.00000000  T       0.00000000       0.00000000       0.00000000
Mo      33.58232326      89.90655684       1.59133887  T       0.00000000       0.00000000       0.00000000
Mo      34.88856371      19.92731112       1.59133887  T       0.00000000       0.00000000       0.00000000
Mo      33.27472149      21.49526272       0.00000000  T       0.00000000       0.00000000       0.00000000
Mo      34.86873708      23.09314111       1.59133887  T       0.00000000       0.00000000       0.00000000
Mo      33.25092138      24.65838675       0.00000000  T       0.00000000       0.00000000       0.00000000
Mo      34.84405245      26.25547086       1.59133887  T       0.00000000       0.00000000       0.00000000
Mo      33.22166160      27.81807544       0.00000000  T       0.00000000       0.00000000       0.00000000
Mo      34.81333570      29.41397037       1.59133887  T       0.00000000       0.00000000       0.00000000
Mo      33.18589119      30.97429803       0.00000000  T       0.00000000       0.00000000       0.00000000
Mo      34.77604712      32.56690835       1.59133887  F       0.00056655       0.00052308       0.00000000
Mo      33.14284681      34.12574642       0.00000000  F      -0.00007171       0.00020834      -0.00000000
Mo      34.73027358      35.71554546       1.59133887  F       0.00000184       0.00030251       0.00000000
Mo      33.09198154      37.27484366      -0.00000000  F       0.00002354      -0.00011214      -0.00000000
Mo      34.67333503      38.86233690       1.59133887  F      -0.00019362      -0.00010287       0.00000000
Mo      33.03062273      40.42327977      -0.00000000  F       0.00025800      -0.00030216       0.00000000
Mo      34.60666709      42.00915421       1.59133887  F       0.00036655       0.00035159      -0.00000000
Mo      32.96204219      43.57369896       0.00000000  F      -0.00026034      -0.00033111      -0.00000000
Mo      34.53184400      45.15886528       1.59133887  F       0.00011047      -0.00021172       0.00000000
Mo      32.88727837      46.72843076      -0.00000000  F      -0.00080731      -0.00104170      -0.00000000
Mo      34.45072255      48.31401789       1.59133887  F       0.00069290       0.00046333      -0.00000000
Mo      32.80782403      49.88906963       0.00000000  F       0.00026828       0.00002256       0.00000000
Mo      34.36559327      51.47660043       1.59133887  F       0.00002231      -0.00056251      -0.00000000
Mo      32.72577629      53.05692924      -0.00000000  F      -0.00043640      -0.00032643       0.00000000
Mo      34.27786092      54.64749758       1.59133887  F       0.00008895       0.00004360      -0.00000000
Mo      32.64225973      56.23268144       0.00000000  F      -0.00021361      -0.00005282       0.00000000
Mo      37.36552238      57.83793739       1.59133887  F      -0.00173237       0.00022459       0.00000000
Mo      35.73074337      59.42677291      -0.00000000  F      -0.00162710       0.00062617       0.00000000
Mo      37.26585012      61.03131759       1.59133887  F      -0.00180675       0.00032190       0.00000000
Mo      35.63833308      62.62338007       0.00000000  F      -0.00138130       0.00061050      -0.00000000
Mo      37.16941360      64.23560462       1.59133887  F       0.00015621       0.00158502       0.00000000
Mo      35.54977394      65.82935492      -0.00000000  F       0.00049265       0.00173266       0.00000000
Mo      37.07948899      67.44911505       1.59133887  F      -0.00055954      -0.00000392       0.00000000
Mo      35.46813722      69.04275909      -0.00000000  F       0.00080169       0.00045882       0.00000000
Mo      36.99937920      70.66817593       1.59133887  F      -0.00006556       0.00004577       0.00000000
Mo      35.39567118      72.26032914      -0.00000000  F       0.00074775      -0.00023463       0.00000000
Mo      36.93135683      73.88845453       1.59133887  F       0.00084324       0.00076657       0.00000000
Mo      35.33407730      75.47781146      -0.00000000  F       0.00130978      -0.00032435       0.00000000
Mo      36.87583208      77.10641331       1.59133887  F       0.00063654      -0.00089201      -0.00000000
Mo      35.28232681      78.69318595      -0.00000000  F       0.00012162       0.00053087       0.00000000
Mo      36.83031687      80.32023411       1.59133887  F      -0.00029607       0.00072305       0.00000000
Mo      35.23938252      81.90436838       0.00000000  T       0.00000000       0.00000000       0.00000000
Mo      36.79248622      83.52859360       1.59133887  T       0.00000000       0.00000000       0.00000000
Mo      35.20184370      85.11476877       0.00000000  T       0.00000000       0.00000000       0.00000000
Mo      36.76078473      86.73624875       1.59133887  T       0.00000000       0.00000000       0.00000000
Mo      35.17165970      88.32118067       0.00000000  T       0.00000000       0.00000000       0.00000000
Mo      36.73575450      89.93957902       1.59133887  T       0.00000000       0.00000000       0.00000000
Mo      35.14749371      91.52373202       0.00000000  T       0.00000000       0.00000000       0.00000000
Mo      36.71595971      93.13905918       1.59133887  T       0.00000000       0.00000000       0.00000000
Mo      38.09467756      19.95695684       1.59133887  T       0.00000000       0.00000000       0.00000000
Mo      36.48331196      21.52613645       0.00000000  T       0.00000000       0.00000000       0.00000000
Mo      38.07833706      23.12550217       1.59133887  T       0.00000000       0.00000000       0.00000000
Mo      36.46299789      24.69149610       0.00000000  T       0.00000000       0.00000000       0.00000000
Mo      38.05753778      26.29039228       1.59133887  T       0.00000000       0.00000000       0.00000000
Mo      36.43737190      27.85297503       0.00000000  T       0.00000000       0.00000000       0.00000000
Mo      38.03091069      29.45096034       1.59133887  T       0.00000000       0.00000000       0.00000000
Mo      36.40617411      31.00927349       0.00000000  F       0.00043780      -0.00068095       0.00000000
Mo      38.00018279      32.60374337       1.59133887  F       0.00023671      -0.00052847      -0.00000000
Mo      36.36699105      34.15919774       0.00000000  F      -0.00016509      -0.00013229      -0.00000000
Mo      37.95645027      35.75148126       1.59133887  F      -0.00099087      -0.00083088      -0.00000000
Mo      36.31566293      37.30533311      -0.00000000  F       0.00009502      -0.00077531       0.00000000
Mo      37.90007860      38.89508955       1.59133887  F       0.00026177       0.00012754      -0.00000000
Mo      36.25326882      40.44974092       0.00000000  F       0.00050912       0.00022172      -0.00000000
Mo      37.83123461      42.03702803       1.59133887  F      -0.00005270      -0.00119134      -0.00000000
Mo      36.18031027      43.59484353       0.00000000  F      -0.00059218       0.00018577      -0.00000000
Mo      37.75070384      45.18029969       1.59133887  F      -0.00040356       0.00031897      -0.00000000
Mo      36.09840602      46.74391057       0.00000000  F       0.00012675       0.00081471       0.00000000
Mo      37.66084217      48.32915034       1.59133887  F      -0.00032306       0.00141593      -0.00000000
Mo      36.01041549      49.90005993       0.00000000  F      -0.00025967       0.00057583       0.00000000
Mo      37.56515829      51.48722952       1.59133887  F      -0.00175077       0.00021769      -0.00000000
Mo      35.91875372      53.06530506       0.00000000  F      -0.00144763       0.00007858      -0.00000000
Mo      37.46598605      54.65641822       1.59133887  F      -0.00119524       0.00154428       0.00000000
Mo      35.82493064      56.24062085      -0.00000000  F      -0.00105225       0.00113704      -0.00000000
Mo      40.53855893      57.85158870       1.59133887  F      -0.00177480      -0.00037560       0.00000000
Mo      38.89867141      59.44056470      -0.00000000  F       0.00009825      -0.00016357      -0.00000000
Mo      40.42445882      61.04966605       1.59133887  F      -0.00050779       0.00018445       0.00000000
Mo      38.79388909      62.64247506       0.00000000  F       0.00128353       0.00068947      -0.00000000
Mo      40.31552030      64.26152745       1.59133887  F      -0.00092900      -0.00141438      -0.00000000
Mo      38.69501058      65.85554314       0.00000000  F      -0.00035412      -0.00099579      -0.00000000
Mo      40.21595253      67.48315625       1.59133887  F      -0.00015159      -0.00028851       0.00000000
Mo      38.60581971      69.07585958       0.00000000  F      -0.00030418       0.00008458      -0.00000000
Mo      40.13092956      70.70933422       1.59133887  F       0.00041198       0.00111248      -0.00000000
Mo      38.53025767      72.29890357      -0.00000000  F      -0.00040371       0.00132638       0.00000000
Mo      40.06317479      73.93430076       1.59133887  F      -0.00107282       0.00002284       0.00000000
Mo      38.46910735      75.52028735      -0.00000000  F      -0.00067869       0.00002238      -0.00000000
Mo      40.01086036      77.15361055       1.59133887  F      -0.00008469       0.00092122      -0.00000000
Mo      38.42091996      78.73637485      -0.00000000  F       0.00094175      -0.00016662       0.00000000
Mo      39.97078650      80.36609275       1.59133887  F       0.00020776      -0.00051582      -0.00000000
Mo      38.38206865      81.94722644       0.00000000  F      -0.00053497       0.00041494      -0.00000000
Mo      39.93824393      83.57268477       1.59133887  F      -0.00027571      -0.00031739       0.00000000
Mo      38.34966396      85.15182586       0.00000000  T       0.00000000       0.00000000       0.00000000
Mo      39.91136417      86.77301302       1.59133887  T       0.00000000       0.00000000       0.00000000
Mo      38.32372476      88.35598016       0.00000000  T       0.00000000       0.00000000       0.00000000
Mo      39.89075517      89.97326633       1.59133887  T       0.00000000       0.00000000       0.00000000
Mo      38.30351222      91.55585853       0.00000000  T       0.00000000       0.00000000       0.00000000
Mo      39.87481777      93.16960533       1.59133887  T       0.00000000       0.00000000       0.00000000
Mo      38.28764839      94.75215828       0.00000000  T       0.00000000       0.00000000       0.00000000
Mo      39.86234535      96.36281416       1.59133887  T       0.00000000       0.00000000       0.00000000
Mo      41.30861632      16.81122622       1.59133887  T       0.00000000       0.00000000       0.00000000
Mo      39.70301703      18.38535221       0.00000000  T       0.00000000       0.00000000       0.00000000
Mo      41.29863536      19.98582454       1.59133887  T       0.00000000       0.00000000       0.00000000
Mo      39.69013537      21.55703007       0.00000000  T       0.00000000       0.00000000       0.00000000