1346
Lattice="119.74640719786615 0.0 0.0 0.0 113.44396471376794 0.0 0.0 0.0 3.1512212420491093" Properties=species:S:1:pos:R:3:fix_mask:L:1:forces:R:3 energy=-14399.482326910793 pbc="T T T"
Mo      15.24382339      44.45715032       1.57561062  T       0.00000000       0.00000000       0.00000000
Mo      15.18063262      47.60040303       1.57561062  T       0.00000000       0.00000000       0.00000000
Mo      15.11118199      50.74534635       1.57561062  T       0.00000000       0.00000000       0.00000000
Mo      15.03701194      53.89256117       1.57561062  T       0.00000000       0.00000000       0.00000000
Mo      13.42235382      55.46307826       0.00000000  T       0.00000000       0.00000000       0.00000000
Mo      18.11091566      57.05101653       1.57561062  T       0.00000000       0.00000000       0.00000000
Mo      16.49611954      58.62269915       0.00000000  T       0.00000000       0.00000000       0.00000000
Mo      18.02944883      60.20394750       1.57561062  T       0.00000000       0.00000000       0.00000000
Mo      17.95189642      63.35982808       1.57561062  T       0.00000000       0.00000000       0.00000000
Mo      17.88071141      66.51805941       1.57561062  T       0.00000000       0.00000000       0.00000000
Mo      18.51985895      38.18615907       1.57561062  T       0.00000000       0.00000000       0.00000000
Mo      16.91044602      39.75018755       0.00000000  T       0.00000000       0.00000000       0.00000000
Mo      18.46965684      41.32698357       1.57561062  T       0.00000000       0.00000000       0.00000000
Mo      16.85702428      42.89160550       0.00000000  T       0.00000000       0.00000000       0.00000000
Mo      18.41165309      44.46823986       1.57561062  T       0.00000000       0.00000000       0.00000000
Mo      16.79613027      46.03378990       0.00000000  T       0.00000000       0.00000000       0.00000000
Mo      18.34562014      47.61055354       1.57561062  T       0.00000000       0.00000000       0.00000000
Mo      16.72798896      49.17737736       0.00000000  T       0.00000000       0.00000000       0.00000000
Mo      18.27215553      50.75466545       1.57561062  T       0.00000000       0.00000000       0.00000000
Mo      16.65371767      52.32304797       0.00000000  T       0.00000000       0.00000000       0.00000000
Mo      18.19297658      53.90130843       1.57561062  T       0.00000000       0.00000000       0.00000000
Mo      16.57545050      55.47138304       0.00000000  T       0.00000000       0.00000000       0.00000000
Mo      21.26120009      57.06022186       1.57561062  T       0.00000000       0.00000000       0.00000000
Mo      19.64351187      58.63163995       0.00000000  T       0.00000000       0.00000000       0.00000000
Mo      21.17349670      60.21343763       1.57561062  T       0.00000000       0.00000000       0.00000000
Mo      19.56080695      61.78634887       0.00000000  T       0.00000000       0.00000000       0.00000000
Mo      21.09065807      63.37002910       1.57561062  T       0.00000000       0.00000000       0.00000000
Mo      19.48394959      64.94390058       0.00000000  T       0.00000000       0.00000000       0.00000000
Mo      21.01556836      66.52921317       1.57561062  T       0.00000000       0.00000000       0.00000000
Mo      19.41493171      68.10351373       0.00000000  T       0.00000000       0.00000000       0.00000000
Mo      20.94955850      69.69006907       1.57561062  T       0.00000000       0.00000000       0.00000000
Mo      19.35445835      71.26437810       0.00000000  T       0.00000000       0.00000000       0.00000000
Mo      20.89268446      72.85176388       1.57561062  T       0.00000000       0.00000000       0.00000000
Mo      20.84423094      76.01365644       1.57561062  T       0.00000000       0.00000000       0.00000000
Mo      21.77127421      31.91937834       1.57561062  T       0.00000000       0.00000000       0.00000000
Mo      20.16782890      33.48211179       0.00000000  T       0.00000000       0.00000000       0.00000000
Mo      21.73492084      35.06011207       1.57561062  T       0.00000000       0.00000000       0.00000000
Mo      20.12808371      36.62282671       0.00000000  T       0.00000000       0.00000000       0.00000000
Mo      21.69189361      38.20029660       1.57561062  T       0.00000000       0.00000000       0.00000000
Mo      20.08138080      39.76323680       0.00000000  T       0.00000000       0.00000000       0.00000000
Mo      21.64105588      41.34024993       1.57561062  T       0.00000000       0.00000000       0.00000000
Mo      20.02676778      42.90374055       0.00000000  T       0.00000000       0.00000000       0.00000000
Mo      21.58140534      44.48047628       1.57561062  T       0.00000000       0.00000000       0.00000000
Mo      19.96359642      46.04491736       0.00000000  T       0.00000000       0.00000000       0.00000000
Mo      21.51241764      47.62169519       1.57561062  T       0.00000000       0.00000000       0.00000000
Mo      19.89189756      49.18752184       0.00000000  T       0.00000000       0.00000000       0.00000000
Mo      21.43453907      50.76480783       1.57561062  T       0.00000000       0.00000000       0.00000000
Mo      19.81280797      52.33239923       0.00000000  T       0.00000000       0.00000000       0.00000000
Mo      21.34965958      53.91074868       1.57561062  T       0.00000000       0.00000000       0.00000000
Mo      19.72881448      55.48029949       0.00000000  T       0.00000000       0.00000000       0.00000000
Mo      24.41130125      57.07018186       1.57561062  T       0.00000000       0.00000000       0.00000000
Mo      22.79026415      58.64129812       0.00000000  T       0.00000000       0.00000000       0.00000000
Mo      24.31634469      60.22375823       1.57561062  T       0.00000000       0.00000000       0.00000000
Mo      22.70130118      61.79658490       0.00000000  T       0.00000000       0.00000000       0.00000000
Mo      24.22752965      63.38122929       1.57561062  T       0.00000000       0.00000000       0.00000000
Mo      22.61958386      64.95508149       0.00000000  T       0.00000000       0.00000000       0.00000000
Mo      24.14824892      66.54155444       1.57561062  T       0.00000000       0.00000000       0.00000000
Mo      22.54732308      68.11577895       0.00000000  T       0.00000000       0.00000000       0.00000000
Mo      24.07978450      69.70356862       1.57561062  T       0.00000000       0.00000000       0.00000000
Mo      22.48505446      71.27768235       0.00000000  T       0.00000000       0.00000000       0.00000000
Mo      24.02183797      72.86627969       1.57561062  T       0.00000000       0.00000000       0.00000000
Mo      22.43219954      74.43999312       0.00000000  T       0.00000000       0.00000000       0.00000000
Mo      23.97327754      76.02897402       1.57561062  T       0.00000000       0.00000000       0.00000000
Mo      22.38764655      77.60215207       0.00000000  T       0.00000000       0.00000000       0.00000000
Mo      23.93270042      79.19119698       1.57561062  T       0.00000000       0.00000000       0.00000000
Mo      24.97357177      28.79493107       1.57561062  T       0.00000000       0.00000000       0.00000000
Mo      23.37320606      30.35701451       0.00000000  T       0.00000000       0.00000000       0.00000000
Mo      24.94385783      31.93617304       1.57561062  T       0.00000000       0.00000000       0.00000000
Mo      23.34021569      33.49792640       0.00000000  T       0.00000000       0.00000000       0.00000000
Mo      24.90832495      35.07647716       1.57561062  T       0.00000000       0.00000000       0.00000000
Mo      23.30094146      36.63807679       0.00000000  T       0.00000000       0.00000000       0.00000000
Mo      24.86568494      38.21599199       1.57561062  T       0.00000000       0.00000000       0.00000000
Mo      23.25413671      39.77769830       0.00000000  T       0.00000000       0.00000000       0.00000000
Mo      24.81450302      41.35502178       1.57561062  T       0.00000000       0.00000000       0.00000000
Mo      23.19853421      42.91720006       0.00000000  T       0.00000000       0.00000000       0.00000000
Mo      24.75338415      44.49409727       1.57561062  T       0.00000000       0.00000000       0.00000000
Mo      23.13312078      46.05722330       0.00000000  T       0.00000000       0.00000000       0.00000000
Mo      24.67511617      47.63192262       1.57561062  F       0.00013649       0.00023459      -0.00000000
Mo      23.05761959      49.19865958       0.00000000  T       0.00000000       0.00000000       0.00000000
Mo      24.59107497      50.77440618       1.57561062  F       0.00002982       0.00008264       0.00000000
Mo      22.97311641      52.34256639       0.00000000  T       0.00000000       0.00000000       0.00000000
Mo      24.49809227      53.92114889       1.57561062  F       0.00003723      -0.00002938       0.00000000
Mo      22.88250863      55.48992549       0.00000000  T       0.00000000       0.00000000       0.00000000
Mo      27.55106574      57.07982801       1.57561062  F      -0.00032880       0.00022436       0.00000000
Mo      25.93620424      58.65180059       0.00000000  T       0.00000000       0.00000000       0.00000000
Mo      27.45061089      60.23649061       1.57561062  F      -0.00048499       0.00020136      -0.00000000
Mo      25.84001454      61.80781723       0.00000000  T       0.00000000       0.00000000       0.00000000
Mo      27.35569910      63.39562631       1.57561062  F      -0.00060687      -0.00012694      -0.00000000
Mo      25.75293175      64.96747108       0.00000000  T       0.00000000       0.00000000       0.00000000
Mo      27.27834669      66.55534744       1.57561062  T       0.00000000       0.00000000       0.00000000
Mo      25.67735118      68.12944355       0.00000000  T       0.00000000       0.00000000       0.00000000
Mo      27.20756635      69.71868963       1.57561062  T       0.00000000       0.00000000       0.00000000
Mo      25.61348436      71.29251167       0.00000000  T       0.00000000       0.00000000       0.00000000
Mo      27.14888313      72.88250126       1.57561062  T       0.00000000       0.00000000       0.00000000
Mo      25.56026290      74.45576104       0.00000000  T       0.00000000       0.00000000       0.00000000
Mo      27.10060706      76.04600567       1.57561062  T       0.00000000       0.00000000       0.00000000
Mo      25.51613027      77.61859999       0.00000000  T       0.00000000       0.00000000       0.00000000
Mo      27.06090726      79.20875361       1.57561062  T       0.00000000       0.00000000       0.00000000
Mo      25.47950619      80.78068924       0.00000000  T       0.00000000       0.00000000       0.00000000
Mo      27.02813215      82.37052118       1.57561062  T       0.00000000       0.00000000       0.00000000
Mo      25.44898922      83.94186118       0.00000000  T       0.00000000       0.00000000       0.00000000
Mo      27.00090659      85.53122495       1.57561062  T       0.00000000       0.00000000       0.00000000
Mo      28.16953309      25.67122943       1.57561062  T       0.00000000       0.00000000       0.00000000
Mo      26.57234738      27.23303491       0.00000000  T       0.00000000       0.00000000       0.00000000
Mo      28.14594230      28.81354749       1.57561062  T       0.00000000       0.00000000       0.00000000
Mo      26.54577782      30.37474928       0.00000000  T       0.00000000       0.00000000       0.00000000
Mo      28.11757391      31.95468677       1.57561062  T       0.00000000       0.00000000       0.00000000
Mo      26.51389988      33.51538681       0.00000000  T       0.00000000       0.00000000       0.00000000
Mo      28.08321490      35.09464876       1.57561062  T       0.00000000       0.00000000       0.00000000
Mo      26.47544111      36.65501804       0.00000000  T       0.00000000       0.00000000       0.00000000
Mo      28.04136046      38.23353321       1.57561062  T       0.00000000       0.00000000       0.00000000
Mo      26.42889208      39.79384173       0.00000000  T       0.00000000       0.00000000       0.00000000
Mo      27.98754522      41.36810411       1.57561062  F      -0.00033035       0.00000933       0.00000000
Mo      26.36897041      42.92938461       0.00000000  F      -0.00009862       0.00018295      -0.00000000
Mo      27.92339383      44.50382736       1.57561062  F      -0.00067715       0.00022654       0.00000000
Mo      26.29973201      46.06725959       0.00000000  F      -0.00016381       0.00017441      -0.00000000
Mo      27.84380781      47.64212488       1.57561062  F      -0.00048035       0.00013833       0.00000000
Mo      26.21685665      49.20730524       0.00000000  F      -0.00028651      -0.00015022       0.00000000
Mo      27.75173113      50.78346067       1.57561062  F      -0.00058333      -0.00004914      -0.00000000
Mo      26.12410052      52.35146068       0.00000000  F      -0.00063824      -0.00008063      -0.00000000
Mo      27.65129652      53.92922930       1.57561062  F      -0.00015527       0.00002444       0.00000000
Mo      26.02701489      55.49927895       0.00000000  F      -0.00057970       0.00015680       0.00000000
Mo      30.69195004      57.09175576       1.57561062  F       0.00020464       0.00034779      -0.00000000
Mo      29.06928189      58.66374019      -0.00000000  F      -0.00008842       0.00030670       0.00000000
Mo      30.58249771      60.24984875       1.57561062  F      -0.00000400       0.00032961      -0.00000000
Mo      28.96726612      61.82304814      -0.00000000  F      -0.00010901       0.00024656       0.00000000
Mo      30.48272789      63.41168160       1.57561062  F      -0.00012538       0.00037220       0.00000000
Mo      28.87700002      64.98428251      -0.00000000  F      -0.00036793       0.00022525      -0.00000000
Mo      30.39831163      66.57559681       1.57561062  F      -0.00018348       0.00045849      -0.00000000
Mo      28.79957004      68.14748995      -0.00000000  F      -0.00081682       0.00030788       0.00000000
Mo      30.32769001      69.73975650       1.57561062  F      -0.00075459       0.00005711      -0.00000000
Mo      28.73949733      71.30918289       0.00000000  T       0.00000000       0.00000000       0.00000000
Mo      30.26962294      72.90365783       1.57561062  F      -0.00098504       0.00018421      -0.00000000
Mo      28.68634910      74.47340133       0.00000000  T       0.00000000       0.00000000       0.00000000
Mo      30.22615032      76.06505420       1.57561062  T       0.00000000       0.00000000       0.00000000
Mo      28.64306944      77.63687773       0.00000000  T       0.00000000       0.00000000       0.00000000
Mo      30.18777453      79.22823076       1.57561062  T       0.00000000       0.00000000       0.00000000
Mo      28.60770025      80.79930973       0.00000000  T       0.00000000       0.00000000       0.00000000
Mo      30.15655063      82.39013751       1.57561062  T       0.00000000       0.00000000       0.00000000
Mo      28.57860728      83.96058076       0.00000000  T       0.00000000       0.00000000       0.00000000
Mo      30.13092797      85.55075219       1.57561062  T       0.00000000       0.00000000       0.00000000
Mo      28.55448879      87.12068121       0.00000000  T       0.00000000       0.00000000       0.00000000
Mo      30.10970947      88.71012723       1.57561062  T       0.00000000       0.00000000       0.00000000
Mo      31.35922994      22.54748622       1.57561062  T       0.00000000       0.00000000       0.00000000
Mo      29.76514877      24.10941450       0.00000000  T       0.00000000       0.00000000       0.00000000
Mo      31.34101732      25.69135759       1.57561062  T       0.00000000       0.00000000       0.00000000
Mo      29.74434828      27.25245570       0.00000000  T       0.00000000       0.00000000       0.00000000
Mo      31.31907213      28.83395100       1.57561062  T       0.00000000       0.00000000       0.00000000
Mo      29.71930060      30.39425177       0.00000000  T       0.00000000       0.00000000       0.00000000
Mo      31.29237839      31.97516132       1.57561062  T       0.00000000       0.00000000       0.00000000
Mo      29.68888228      33.53474552       0.00000000  T       0.00000000       0.00000000       0.00000000
Mo      31.25840165      35.11189508       1.57561062  F      -0.00046426      -0.00005326      -0.00000000
Mo      29.65165410      36.67394882       0.00000000  T       0.00000000       0.00000000       0.00000000
Mo      31.21887439      38.24816324       1.57561062  F      -0.00035324      -0.00009891       0.00000000
Mo      29.60466663      39.80791527       0.00000000  F      -0.00043500      -0.00000093      -0.00000000
Mo      31.16670212      41.38337215       1.57561062  F      -0.00080510      -0.00011392       0.00000000
Mo      29.54564137      42.94287001       0.00000000  F      -0.00077684       0.00017356      -0.00000000
Mo      31.09954994      44.51816959       1.57561062  F      -0.00079759       0.00012524       0.00000000
Mo      29.47191602      46.07901704       0.00000000  F      -0.00078437       0.00028701      -0.00000000
Mo      31.01500102      47.65457680       1.57561062  F      -0.00024930       0.00046336       0.00000000
Mo      29.38261693      49.21780307       0.00000000  F      -0.00051815       0.00015548      -0.00000000
Mo      30.91480082      50.79459978       1.57561062  F       0.00013311       0.00062848      -0.00000000
Mo      29.28124241      52.36088449      -0.00000000  F      -0.00037696      -0.00007137      -0.00000000
Mo      30.80443363      53.94001195       1.57561062  F       0.00011233       0.00045575       0.00000000
Mo      29.17455636      55.50917064       0.00000000  F      -0.00010457       0.00016198       0.00000000
Mo      33.83211256      57.10578655       1.57561062  F       0.00024745       0.00051930       0.00000000
Mo      32.20391384      58.67719676       0.00000000  F      -0.00002043       0.00062096       0.00000000
Mo      33.71158567      60.26556880       1.57561062  F       0.00050146       0.00034918      -0.00000000
Mo      32.09417016      61.83854149      -0.00000000  F       0.00031925       0.00067156       0.00000000
Mo      33.60513367      63.42999588       1.57561062  F       0.00027971       0.00037518       0.00000000
Mo      31.99924338      65.00285840       0.00000000  F       0.00013972       0.00064221      -0.00000000
Mo      33.51715395      66.59636452       1.57561062  F       0.00021425       0.00046202       0.00000000
Mo      31.92071275      68.16838065      -0.00000000  F      -0.00002936       0.00019478      -0.00000000
Mo      33.44656190      69.76269353       1.57561062  F      -0.00032115      -0.00007973       0.00000000
Mo      31.85764097      71.33356616      -0.00000000  F      -0.00064744      -0.00010445       0.00000000
Mo      33.39037556      72.92758788       1.57561062  F      -0.00093491       0.00009342       0.00000000
Mo      31.80652920      74.49647516      -0.00000000  F      -0.00140882       0.00041646       0.00000000
Mo      33.34663012      76.08999069       1.57561062  F      -0.00150353       0.00080518      -0.00000000
Mo      31.76845775      77.65728723       0.00000000  T       0.00000000       0.00000000       0.00000000
Mo      33.31335619      79.24991743       1.57561062  T       0.00000000       0.00000000       0.00000000
Mo      31.73478143      80.81991072       0.00000000  T       0.00000000       0.00000000       0.00000000
Mo      33.28409528      82.41175759       1.57561062  T       0.00000000       0.00000000       0.00000000
Mo      31.70745814      83.98110143       0.00000000  T       0.00000000       0.00000000       0.00000000
Mo      33.26038967      85.57206143       1.57561062  T       0.00000000       0.00000000       0.00000000
Mo      31.68506468      87.14091601       0.00000000  T       0.00000000       0.00000000       0.00000000
Mo      33.24096794      88.73094885       1.57561062  T       0.00000000       0.00000000       0.00000000
Mo      31.66652613      90.29945708       0.00000000  T       0.00000000       0.00000000       0.00000000
Mo      33.22488405      91.88856136       1.57561062  T       0.00000000       0.00000000       0.00000000
Mo      34.54298878      19.42285460       1.57561062  T       0.00000000       0.00000000       0.00000000
Mo      32.95182427      20.98533680       0.00000000  T       0.00000000       0.00000000       0.00000000
Mo      34.52932308      22.56865393       1.57561062  T       0.00000000       0.00000000       0.00000000
Mo      32.93599034      24.13013224       0.00000000  T       0.00000000       0.00000000       0.00000000
Mo      34.51286692      25.71320175       1.57561062  T       0.00000000       0.00000000       0.00000000
Mo      32.91691176      27.27364829       0.00000000  T       0.00000000       0.00000000       0.00000000
Mo      34.49283631      28.85632706       1.57561062  T       0.00000000       0.00000000       0.00000000
Mo      32.89368815      30.41574212       0.00000000  T       0.00000000       0.00000000       0.00000000
Mo      34.46754761      31.99427470       1.57561062  F      -0.00056678      -0.00025823       0.00000000
Mo      32.86433989      33.55277485      -0.00000000  F      -0.00046336      -0.00019147       0.00000000
Mo      34.43742337      35.13167422       1.57561062  F      -0.00087942      -0.00014341      -0.00000000
Mo      32.82956563      36.68925332       0.00000000  F      -0.00056312      -0.00022259       0.00000000
Mo      34.39946062      38.26789752       1.57561062  F      -0.00077648       0.00002045       0.00000000
Mo      32.78489067      39.82507245       0.00000000  F      -0.00076050      -0.00003495      -0.00000000
Mo      34.34833507      41.40243989       1.57561062  F      -0.00099564       0.00029513      -0.00000000
Mo      32.72534631      42.95941472      -0.00000000  F      -0.00092426       0.00027006       0.00000000
Mo      34.27969165      44.53600469       1.57561062  F      -0.00010864       0.00043650       0.00000000
Mo      32.64797864      46.09401661       0.00000000  F      -0.00039265       0.00040281      -0.00000000
Mo      34.19022664      47.67046863       1.57561062  F       0.00021882       0.00056507      -0.00000000
Mo      32.55170268      49.23102355       0.00000000  F       0.00007892       0.00066165      -0.00000000
Mo      34.08089196      50.80864876       1.57561062  F       0.00017192       0.00083468       0.00000000
Mo      32.44032013      52.37294791       0.00000000  F      -0.00032317       0.00058406      -0.00000000
Mo      33.95826058      53.95330087       1.57561062  F       0.00007372       0.00072156      -0.00000000
Mo      32.32157899      55.52150521      -0.00000000  F      -0.00024867       0.00028578       0.00000000
Mo      36.97107457      57.12244355       1.57561062  F       0.00077274       0.00024047      -0.00000000
Mo      35.33679497      58.69331687       0.00000000  F       0.00069673       0.00016960       0.00000000
Mo      36.83714828      60.28428670       1.57561062  F       0.00057167       0.00027248       0.00000000
Mo      35.21725628      61.85706426       0.00000000  F       0.00082744      -0.00031902      -0.00000000
Mo      36.72278743      63.45162011       1.57561062  F       0.00056254      -0.00034369      -0.00000000
Mo      35.11729625      65.02412591      -0.00000000  F       0.00048453      -0.00020947      -0.00000000
Mo      36.63201723      66.62063659       1.57561062  F       0.00041134      -0.00080731       0.00000000
Mo      35.03771646      68.19177896      -0.00000000  F       0.00028561      -0.00014021       0.00000000
Mo      36.56220307      69.78877513       1.57561062  F      -0.00012922      -0.00103651      -0.00000000
Mo      34.97574400      71.35820904      -0.00000000  F      -0.00065415      -0.00040972      -0.00000000
Mo      36.50880882      72.95468047       1.57561062  F      -0.00086062      -0.00085778      -0.00000000
Mo      34.92741367      74.52231121      -0.00000000  F      -0.00141513       0.00005445      -0.00000000
Mo      36.46799777      76.11773915       1.57561062  F      -0.00194419      -0.00000221       0.00000000
Mo      34.88977164      77.68405709      -0.00000000  F      -0.00123456       0.00108695       0.00000000
Mo      36.43571425      79.27835367       1.57561062  F      -0.00059782       0.00089411      -0.00000000
Mo      34.86085934      80.84275402       0.00000000  T       0.00000000       0.00000000       0.00000000
Mo      36.41092566      82.43559903       1.57561062  T       0.00000000       0.00000000       0.00000000
Mo      34.83567896      84.00360571       0.00000000  T       0.00000000       0.00000000       0.00000000
Mo      36.38946367      85.59528338       1.57561062  T       0.00000000       0.00000000       0.00000000
Mo      34.81528714      87.16287264       0.00000000  T       0.00000000       0.00000000       0.00000000
Mo      36.37207408      88.75338503       1.57561062  T       0.00000000       0.00000000       0.00000000
Mo      34.79857334      90.32072312       0.00000000  T       0.00000000       0.00000000       0.00000000
Mo      36.35780546      91.91010716       1.57561062  T       0.00000000       0.00000000       0.00000000
Mo      36.13278777      17.85992466       0.00000000  T       0.00000000       0.00000000       0.00000000
Mo      37.71134465      19.44441293       1.57561062  T       0.00000000       0.00000000       0.00000000
Mo      36.12108259      21.00679227       0.00000000  T       0.00000000       0.00000000       0.00000000
Mo      37.69940066      22.59128005       1.57561062  T       0.00000000       0.00000000       0.00000000
Mo      36.10700337      24.15246355       0.00000000  T       0.00000000       0.00000000       0.00000000
Mo      37.68489239      25.73682989       1.57561062  T       0.00000000       0.00000000       0.00000000
Mo      36.08987828      27.29674816       0.00000000  T       0.00000000       0.00000000       0.00000000
Mo      37.66628121      28.87775843       1.57561062  F       0.00003786      -0.00002603       0.00000000
Mo      36.06812083      30.43599412      -0.00000000  F      -0.00029903       0.00003320       0.00000000
Mo      37.64481600      32.01791658       1.57561062  F      -0.00084312       0.00013661      -0.00000000
Mo      36.04263430      33.57466849       0.00000000  F      -0.00103712      -0.00004434      -0.00000000
Mo      37.61798717      35.15638111       1.57561062  F      -0.00139021       0.00025606       0.00000000
Mo      36.01045777      36.71182253       0.00000000  F      -0.00098571      -0.00006331      -0.00000000
Mo      37.58220010      38.29259547       1.57561062  F      -0.00090659       0.00069080       0.00000000
Mo      35.96741853      39.84693995      -0.00000000  F      -0.00094156       0.00054841       0.00000000
Mo      37.53303113      41.42654883       1.57561062  F      -0.00024056       0.00094464      -0.00000000
Mo      35.90848127      42.98031855      -0.00000000  F      -0.00014964       0.00074018      -0.00000000
Mo      37.46444461      44.55864056       1.57561062  F       0.00054538       0.00022047       0.00000000
Mo      35.82856555      46.11305705      -0.00000000  F       0.00032055       0.00053768       0.00000000
Mo      37.37065527      47.69057831       1.57561062  F       0.00044197       0.00014672       0.00000000
Mo      35.72505504      49.24775240      -0.00000000  F       0.00012500       0.00045262       0.00000000
Mo      37.25096871      50.82616420       1.57561062  F       0.00056673       0.00027588      -0.00000000
Mo      35.60176696      52.38796073      -0.00000000  F       0.00004292       0.00043410      -0.00000000
Mo      37.11344530      53.96947582       1.57561062  F       0.00097048      -0.00001478      -0.00000000
Mo      35.46849465      55.53629529       0.00000000  F       0.00050252       0.00040329       0.00000000
Mo      40.10842092      57.14211767       1.57561062  F      -0.00002527       0.00049087      -0.00000000
Mo      38.46683403      58.71238713       0.00000000  F       0.00112770       0.00008420      -0.00000000
Mo      39.95782599      60.30679798       1.57561062  F       0.00008877      -0.00002029       0.00000000
Mo      38.33546125      61.87899900       0.00000000  F       0.00103277       0.00024628      -0.00000000
Mo      39.83462422      63.47749428       1.57561062  F       0.00075004       0.00014400       0.00000000
Mo      38.23041055      65.04909656      -0.00000000  F       0.00037440       0.00002920       0.00000000
Mo      39.74201302      66.64919960       1.57561062  F       0.00048290       0.00048481       0.00000000
Mo      38.15066026      68.21909488      -0.00000000  F       0.00005832      -0.00070570      -0.00000000
Mo      39.67421421      69.81917276       1.57561062  F      -0.00007317      -0.00023120       0.00000000
Mo      38.09102960      71.38700261      -0.00000000  F      -0.00072456      -0.00127290       0.00000000
Mo      39.62447669      72.98611584       1.57561062  F      -0.00069578      -0.00103526       0.00000000
Mo      38.04619231      74.55192452       0.00000000  F      -0.00153380      -0.00137126      -0.00000000
Mo      39.58760281      76.14964172       1.57561062  F      -0.00244106      -0.00180495      -0.00000000
Mo      38.01186304      77.71366214      -0.00000000  F      -0.00169263      -0.00052812       0.00000000
Mo      39.55883255      79.30971575       1.57561062  F      -0.00100914      -0.00080939      -0.00000000
Mo      37.98434859      80.87281176      -0.00000000  F      -0.00023780       0.00060208      -0.00000000