497
Lattice="94.16566508696079 0.0 0.0 0.0 81.54985812956542 0.0 0.0 0.0 2.7743825140804708" Properties=species:S:1:pos:R:3:fix_mask:L:1:forces:R:3 energy=-6179.227994450994 pbc="T T T"
W       20.95168841      28.69455684      -0.27826269  T       0.00000000       0.00000000       0.00000000
W       19.64062421      30.95984560       0.60898111  T       0.00000000       0.00000000       0.00000000
W       18.32834989      33.22482433      -1.27719323  T       0.00000000       0.00000000       0.00000000
W       20.94537699      33.22492170      -0.34245654  T       0.00000000       0.00000000       0.00000000
W       19.63201093      35.48979509       0.54384684  T       0.00000000       0.00000000       0.00000000
W       18.31807969      37.75473402      -1.34224557  T       0.00000000       0.00000000       0.00000000
W       20.93453261      37.75476611      -0.41319279  T       0.00000000       0.00000000       0.00000000
W       19.61999947      40.01984996       0.47419206  T       0.00000000       0.00000000       0.00000000
W       18.30588833      42.28515575       1.36465258  T       0.00000000       0.00000000       0.00000000
W       20.92121335      42.28516448       2.28729684  T       0.00000000       0.00000000       0.00000000
W       19.60742059      44.55066549       3.17824027  T       0.00000000       0.00000000       0.00000000
W       18.29470458      46.81624158       1.29847565  T       0.00000000       0.00000000       0.00000000
W       20.90920102      46.81632926       2.21510809  T       0.00000000       0.00000000       0.00000000
W       19.59748416      49.08188809       3.11137536  T       0.00000000       0.00000000       0.00000000
W       20.90131935      51.34735725       2.14863936  T       0.00000000       0.00000000       0.00000000
W       26.18197348      19.62583201      -1.05192018  T       0.00000000       0.00000000       0.00000000
W       28.79559818      19.62274641      -0.09939843  T       0.00000000       0.00000000       0.00000000
W       24.87621822      21.89439281      -0.16418258  T       0.00000000       0.00000000       0.00000000
W       27.49056637      21.89221712       0.78619975  T       0.00000000       0.00000000       0.00000000
W       26.18463016      24.16070217      -1.10384587  T       0.00000000       0.00000000       0.00000000
W       28.79919093      24.15869352      -0.15224822  T       0.00000000       0.00000000       0.00000000
W       23.56943051      24.16201554       0.72277974  T       0.00000000       0.00000000       0.00000000
W       22.26130506      26.42869172      -1.16497939  T       0.00000000       0.00000000       0.00000000
W       24.87733071      26.42806619      -0.22021799  T       0.00000000       0.00000000       0.00000000
W       27.49290446      26.42700429       0.72808925  T       0.00000000       0.00000000       0.00000000
W       26.18481577      28.69399475      -1.16651889  T       0.00000000       0.00000000       0.00000000
W       28.80088581      28.69323788      -0.21794775  T       0.00000000       0.00000000       0.00000000
W       23.56835551      28.69438019       0.66325290  T       0.00000000       0.00000000       0.00000000
W       22.25763555      30.95988850      -1.22726646  T       0.00000000       0.00000000       0.00000000
W       24.87465919      30.95987038      -0.28659417  T       0.00000000       0.00000000       0.00000000
W       27.49160326      30.95972212       0.65736985  T       0.00000000       0.00000000       0.00000000
W       26.17985113      33.22511457      -1.24102281  T       0.00000000       0.00000000       0.00000000
W       28.79191211      33.22351896      -0.29821345  F      -0.00000032      -0.00000023      -0.00000051
W       23.56254640      33.22502322       0.59419703  T       0.00000000       0.00000000       0.00000000
W       22.24894488      35.48987955      -1.29781174  T       0.00000000       0.00000000       0.00000000
W       24.86608006      35.48998262      -0.36340534  T       0.00000000       0.00000000       0.00000000
W       27.48345528      35.49010633       0.57327052  T       0.00000000       0.00000000       0.00000000
W       26.16791781      37.75486358      -1.32649505  T       0.00000000       0.00000000       0.00000000
W       28.78108658      37.75542745      -0.39699833  F       0.00000032      -0.00000012      -0.00000051
W       23.55113030      37.75480792       0.51674851  T       0.00000000       0.00000000       0.00000000
W       22.23592804      40.01985253      -1.37421181  T       0.00000000       0.00000000       0.00000000
W       24.85190468      40.01985600      -0.44796799  T       0.00000000       0.00000000       0.00000000
W       27.46201605      40.01948433       0.47370119  F      -0.00000006       0.00000039       0.00000013
W       26.15159365      42.28519190       1.35668051  T       0.00000000       0.00000000       0.00000000
W       28.76040563      42.28571602       2.27064780  F       0.00000021      -0.00000065      -0.00000008
W       23.53645774      42.28517607       3.20948726  T       0.00000000       0.00000000       0.00000000
W       22.22216495      44.55071843       1.32287264  T       0.00000000       0.00000000       0.00000000
W       24.83672197      44.55078684       2.24063174  T       0.00000000       0.00000000       0.00000000
W       27.44309181      44.55178103       3.15197074  F       0.00000084      -0.00000001       0.00000006
W       26.13763658      46.81655121       1.26860828  T       0.00000000       0.00000000       0.00000000
W       28.74511436      46.81761690       2.17418619  F      -0.00000034      -0.00000021       0.00000007
W       23.52352017      46.81643270       3.13012061  T       0.00000000       0.00000000       0.00000000
W       22.21181779      49.08197911       1.25010765  T       0.00000000       0.00000000       0.00000000
W       24.82604743      49.08205384       2.16091808  T       0.00000000       0.00000000       0.00000000
W       27.44021696      49.08207639       3.06870144  T       0.00000000       0.00000000       0.00000000
W       26.13040654      51.34716791       1.19039817  T       0.00000000       0.00000000       0.00000000
W       28.74522552      51.34676887       2.09316687  T       0.00000000       0.00000000       0.00000000
W       23.51582057      51.34732466       3.05818383  T       0.00000000       0.00000000       0.00000000
W       22.20655724      53.61237673       1.18511091  T       0.00000000       0.00000000       0.00000000
W       24.82157504      53.61200694       2.09116241  T       0.00000000       0.00000000       0.00000000
W       27.43693749      53.61130969       2.99371285  T       0.00000000       0.00000000       0.00000000
W       26.12916327      55.87570063       1.12401098  T       0.00000000       0.00000000       0.00000000
W       28.74555606      55.87413415       2.02285665  T       0.00000000       0.00000000       0.00000000
W       23.51335888      55.87666796       2.99563397  T       0.00000000       0.00000000       0.00000000
W       24.82166532      58.14002319       2.03189907  T       0.00000000       0.00000000       0.00000000
W       27.43837155      58.13822633       2.93169421  T       0.00000000       0.00000000       0.00000000
W       26.13122162      60.40237158       1.06874710  T       0.00000000       0.00000000       0.00000000
W       28.74876668      60.39962270       1.96603659  T       0.00000000       0.00000000       0.00000000
W       27.44164800      62.66380773       2.88102328  T       0.00000000       0.00000000       0.00000000
W       34.01746131      15.07696521      -0.91830618  T       0.00000000       0.00000000       0.00000000
W       36.63007303      15.07129774       0.04269244  T       0.00000000       0.00000000       0.00000000
W       30.10020839      17.35259493      -0.98677662  T       0.00000000       0.00000000       0.00000000
W       32.71288594      17.34778817      -0.02921571  T       0.00000000       0.00000000       0.00000000
W       35.32526315      17.34213220       0.93195311  T       0.00000000       0.00000000       0.00000000
W       34.02101532      19.61349640      -0.95693767  T       0.00000000       0.00000000       0.00000000
W       36.63305342      19.60727498       0.00798363  T       0.00000000       0.00000000       0.00000000
W       31.40859359      19.61867355       0.85692624  T       0.00000000       0.00000000       0.00000000
W       30.10421149      21.88913718      -1.03386694  T       0.00000000       0.00000000       0.00000000
W       32.71707715      21.88489433      -0.07497448  T       0.00000000       0.00000000       0.00000000
W       35.32920394      21.87929501       0.88907351  T       0.00000000       0.00000000       0.00000000
W       34.02568521      24.15129435      -1.00851490  T       0.00000000       0.00000000       0.00000000
W       36.63318602      24.13885699      -0.03160023  F      -0.00000032      -0.00000033      -0.00000015
W       31.41292513      24.15568079       0.80401512  T       0.00000000       0.00000000       0.00000000
W       30.10779919      26.42524411      -1.09354238  T       0.00000000       0.00000000       0.00000000
W       32.72173681      26.42239258      -0.13521177  T       0.00000000       0.00000000       0.00000000
W       35.33122428      26.41322970       0.83916049  F      -0.00000032      -0.00000029      -0.00000019
W       34.02528597      28.68636528      -1.06962338  F      -0.00000035       0.00000007      -0.00000008
W       36.63740392      28.67919510      -0.09381327  F      -0.00000018      -0.00000036      -0.00000018
W       31.41113953      28.68843842       0.73907133  F       0.00000039      -0.00000025      -0.00000025
W       30.10336580      30.95711210      -1.16663668  F       0.00000003      -0.00000053      -0.00000026
W       32.71805640      30.95533921      -0.20864552  F       0.00000011       0.00000015      -0.00000004
W       35.33336606      30.95337916       0.76044371  F      -0.00000008      -0.00000024       0.00000002
W       34.02559147      33.22275176      -1.16443545  F       0.00000024      -0.00000003      -0.00000018
W       36.64181760      33.22068568      -0.19220784  F       0.00000020      -0.00000024       0.00000003
W       31.40850578      33.22341567       0.65160598  F       0.00000001      -0.00000042      -0.00000025
W       30.09692625      35.48934254      -1.26216035  F       0.00000016      -0.00000051      -0.00000029
W       32.71488184      35.48998431      -0.31479578  F      -0.00000015      -0.00000009      -0.00000008
W       35.33276704      35.48993198       0.64147771  F       0.00000027      -0.00000000       0.00000006
W       34.01787603      37.75603423      -1.29506551  F      -0.00000011       0.00000024      -0.00000023
W       36.63784941      37.75651334      -0.34578273  F      -0.00000022      -0.00000008      -0.00000009
W       31.39861556      37.75503554       0.53872323  F       0.00000045       0.00000030      -0.00000019
W       30.07861715      40.02034458      -1.37400788  F      -0.00000006       0.00000026      -0.00000032
W       32.69626205      40.02035453      -0.44771054  F      -0.00000022      -0.00000002      -0.00000028
W       35.31531381      40.02134008       0.48078016  F       0.00000029       0.00000039      -0.00000028
W       33.98803508      42.28645259       1.32800607  F       0.00000018      -0.00000009      -0.00000012
W       36.60160488      42.28712684       2.23834840  F      -0.00000018       0.00000030       0.00000005
W       31.37429410      42.28614743       3.18841231  F       0.00000004      -0.00000019      -0.00000034
W       30.05580633      44.55219409       1.28903139  F      -0.00000014      -0.00000042      -0.00000020
W       32.66916173      44.55316116       2.19541881  F      -0.00000063      -0.00000035      -0.00000016
W       35.28182261      44.55361007       3.09545466  F      -0.00000055       0.00000013      -0.00000014
W       33.97081407      46.81984856       1.19971529  F       0.00000016       0.00000006       0.00000040
W       36.58458126      46.82053902       2.08641343  F       0.00000012       0.00000077      -0.00000003
W       31.35728783      46.81916031       3.07730020  F       0.00000046      -0.00000037       0.00000008
W       30.04902169      49.08396173       1.19473646  F       0.00000006      -0.00000002       0.00000005
W       32.66230531      49.08505080       2.09045225  F       0.00000002      -0.00000001       0.00000004
W       35.27742234      49.08495978       2.97813032  F       0.00000001       0.00000008       0.00000010
W       33.97092542      51.34908286       1.10365115  F       0.00000014      -0.00000039      -0.00000006
W       36.58855309      51.34646647       1.98352252  F      -0.00000024      -0.00000022      -0.00000011
W       31.35605061      51.34914930       2.98868678  F      -0.00000003      -0.00000032       0.00000014
W       30.05287600      53.61005295       1.11741132  T       0.00000000       0.00000000       0.00000000
W       32.66568958      53.61236957       2.00925527  F       0.00000010      -0.00000033       0.00000004
W       35.28234847      53.61055039       2.89273560  F      -0.00000017      -0.00000042      -0.00000003
W       33.97634316      55.87373047       1.03171590  F      -0.00000018       0.00000019       0.00000003
W       36.59682647      55.86693523       1.91196483  F      -0.00000000       0.00000009      -0.00000018
W       31.36277280      55.87164702       2.91683602  T       0.00000000       0.00000000       0.00000000
W       30.05580461      58.13556707       1.05297697  T       0.00000000       0.00000000       0.00000000
W       32.67410939      58.13172532       1.94370298  T       0.00000000       0.00000000       0.00000000
W       35.29333245      58.12638728       2.82866546  T       0.00000000       0.00000000       0.00000000
W       33.98599752      60.39085495       0.97335585  T       0.00000000       0.00000000       0.00000000
W       36.60553292      60.38458233       1.85680491  T       0.00000000       0.00000000       0.00000000
W       31.36702518      60.39585159       2.85921980  T       0.00000000       0.00000000       0.00000000
W       30.05982571      62.66014324       1.00199914  T       0.00000000       0.00000000       0.00000000
W       32.67856788      62.65546333       1.89351432  T       0.00000000       0.00000000       0.00000000
W       35.29774408      62.64975653       2.78092041  T       0.00000000       0.00000000       0.00000000
W       33.98994336      64.91494679       0.93076907  T       0.00000000       0.00000000       0.00000000
W       36.60896206      64.90905327       1.81803978  T       0.00000000       0.00000000       0.00000000
W       31.37106647      64.92017938       2.81447725  T       0.00000000       0.00000000       0.00000000
W       35.30087505      67.17476418       2.74565827  T       0.00000000       0.00000000       0.00000000
W       37.93549233      12.80127316      -0.85029674  T       0.00000000       0.00000000       0.00000000
W       40.54877268      12.79631532       0.11189235  T       0.00000000       0.00000000       0.00000000
W       43.16243470      12.79223426       1.07560355  T       0.00000000       0.00000000       0.00000000
W       41.85602471      15.06035897      -0.80210877  T       0.00000000       0.00000000       0.00000000
W       44.46963934      15.05636734       0.16543324  T       0.00000000       0.00000000       0.00000000
W       39.24286294      15.06556318       1.00636967  T       0.00000000       0.00000000       0.00000000
W       37.93758905      17.33591176      -0.87773850  T       0.00000000       0.00000000       0.00000000
W       40.55015761      17.32969231       0.09011131  T       0.00000000       0.00000000       0.00000000
W       43.16320141      17.32428378       1.06049284  T       0.00000000       0.00000000       0.00000000
W       41.85735979      19.59362978      -0.82419868  T       0.00000000       0.00000000       0.00000000
W       44.47029033      19.58812100       0.15166395  T       0.00000000       0.00000000       0.00000000
W       39.24503839      19.60038886       0.97719742  T       0.00000000       0.00000000       0.00000000
W       37.94082809      21.87238449      -0.91577290  T       0.00000000       0.00000000       0.00000000
W       40.54939896      21.85643249       0.06631171  F       0.00000040       0.00000027      -0.00000001
W       43.16248969      21.85066153       1.04566187  F      -0.00000012       0.00000004       0.00000011
W       41.85633020      24.11839336      -0.84418078  F       0.00000010       0.00000049      -0.00000004
W       44.47029637      24.11167989       0.14331538  F       0.00000022       0.00000012       0.00000013
W       39.24540155      24.12985854       0.94742148  F       0.00000036       0.00000008      -0.00000005
W       37.94095289      26.40302488      -0.95628985  F       0.00000050      -0.00000030      -0.00000026
W       40.55197921      26.39199497       0.03098822  F       0.00000016       0.00000017      -0.00000024
W       43.16374180      26.38075524       1.02425728  F      -0.00000007      -0.00000018      -0.00000004
W       41.85823698      28.65384809      -0.88266114  F       0.00000002       0.00000004      -0.00000012
W       44.47080793      28.64284418       0.12311094  F       0.00000027      -0.00000007      -0.00000038
W       39.24797396      28.66775703       0.89402949  F       0.00000072       0.00000035       0.00000010
W       37.94549571      30.94520059      -1.03084188  F      -0.00000028       0.00000004       0.00000018
W       40.55534226      30.93230813      -0.03170903  F       0.00000024       0.00000041      -0.00000000
W       43.16424911      30.91492805       0.98084384  F       0.00000039       0.00000010      -0.00000030
W       41.86335853      33.19629560      -0.96090189  F       0.00000015      -0.00000008       0.00000018
W       44.47064369      33.17486097       0.07184591  F      -0.00000008       0.00000032       0.00000044
W       39.25383993      33.21176618       0.79850054  F       0.00000039      -0.00000007       0.00000015
W       37.94982391      35.48900014      -1.15925674  F       0.00000012       0.00000038       0.00000018
W       40.56096763      35.47882844      -0.15860020  F       0.00000012       0.00000057       0.00000025
W       43.16747031      35.46032040       0.88053842  F       0.00000027       0.00000000      -0.00000007
W       41.87413223      37.74727162      -1.14010817  F       0.00000053       0.00000004       0.00000002
W       44.49268523      37.72888326      -0.04459552  F      -0.00000021       0.00000045       0.00000016
W       39.25917292      37.75720631       0.62429907  F       0.00000015       0.00000025       0.00000000
W       37.93605632      40.02122500      -1.36146780  F       0.00000014      -0.00000007      -0.00000005
W       40.56164969      40.02463879      -0.41434840  F      -0.00000037       0.00000006       0.00000006
W       43.17834276      40.01203499       0.59412306  F       0.00000021      -0.00000044       0.00000018
W       41.82648667      42.29044049       1.23734624  F      -0.00000044      -0.00000004       0.00000016
W       44.42526430      42.29375511       1.97576239  F       0.00000010       0.00000014       0.00000003
W       39.21212139      42.28797569       3.13766753  F       0.00000007      -0.00000009       0.00000003
W       37.89325560      44.55575296       1.20920777  F      -0.00000012      -0.00000008      -0.00000018
W       40.50593233      44.55496913       2.07408470  F       0.00000033       0.00000026      -0.00000031
W       43.12065625      44.56146967       2.89207174  F       0.00000010       0.00000038      -0.00000003
W       41.81877303      46.81630811       1.02703308  F       0.00000029      -0.00000032      -0.00000032
W       44.44914768      46.80101366       1.83446572  F      -0.00000030      -0.00000017       0.00000032
W       39.20075651      46.81936902       2.95813348  F      -0.00000042       0.00000023      -0.00000010
W       37.89452065      49.08261148       1.07950041  F      -0.00000051      -0.00000029       0.00000012
W       40.51450585      49.07823457       1.93678963  F       0.00000021       0.00000047      -0.00000004
W       43.14028977      49.06345293       2.76812343  F      -0.00000005      -0.00000009      -0.00000008
W       41.83329610      51.32898815       0.92495664  F      -0.00000005      -0.00000026      -0.00000005
W       44.45813970      51.31471753       1.75225310  F       0.00000031       0.00000028       0.00000006
W       39.20905674      51.34060890       2.84996120  F       0.00000022      -0.00000000      -0.00000035
W       37.90296141      53.60371719       0.99227483  F       0.00000001      -0.00000019      -0.00000018
W       40.52550214      53.59435504       1.85363163  F      -0.00000015       0.00000026      -0.00000016
W       43.14901119      53.58220117       2.70066595  F      -0.00000001       0.00000025      -0.00000018
W       41.84033682      55.84917264       0.86708604  F       0.00000007       0.00000039      -0.00000002
W       44.46193739      55.83966529       1.71829572  F      -0.00000006      -0.00000006       0.00000019
W       39.21755968      55.85966753       2.78121890  F       0.00000006       0.00000034       0.00000014
W       37.91051308      58.12496161       0.93470883  F       0.00000015       0.00000076      -0.00000007
W       40.53148400      58.11477166       1.80408662  F       0.00000029       0.00000018       0.00000005
W       43.15287435      58.10702226       2.66692249  F      -0.00000018       0.00000016       0.00000002
W       41.84478188      60.36991819       0.83439244  T       0.00000000       0.00000000       0.00000000
W       44.46260218      60.36893834       1.70165082  F      -0.00000041       0.00000023       0.00000030
W       39.22528682      60.37732927       2.73512431  T       0.00000000       0.00000000       0.00000000
W       37.91709453      62.64325169       0.88980840  T       0.00000000       0.00000000       0.00000000
W       40.53626876      62.63652675       1.76926061  T       0.00000000       0.00000000       0.00000000
W       43.15495047      62.63051111       2.64557945  T       0.00000000       0.00000000       0.00000000
W       41.84638129      64.89721450       0.80914964  T       0.00000000       0.00000000       0.00000000
W       44.46439913      64.89275454       1.68853628  T       0.00000000       0.00000000       0.00000000
W       39.22785856      64.90291954       2.70213383  T       0.00000000       0.00000000       0.00000000
W       37.91953054      67.16913848       0.85916328  T       0.00000000       0.00000000       0.00000000
W       40.53789917      67.16376679       1.74471698  T       0.00000000       0.00000000       0.00000000
W       43.15585276      67.15926708       2.62843714  T       0.00000000       0.00000000       0.00000000
W       41.84737418      69.42574507       0.79144844  T       0.00000000       0.00000000       0.00000000
W       44.46489058      69.42243345       1.67758634  T       0.00000000       0.00000000       0.00000000
W       39.22949131      69.43017283       2.67848293  T       0.00000000       0.00000000       0.00000000
W       45.77645395      12.78953785      -0.73404489  T       0.00000000       0.00000000       0.00000000
W       48.39068900      12.78859420       0.23119854  T       0.00000000       0.00000000       0.00000000
W       51.00492406      12.78953785       1.19644198  T       0.00000000       0.00000000       0.00000000
W       49.69775324      15.05419317      -0.67156474  T       0.00000000       0.00000000       0.00000000
W       52.31173866      15.05636734       0.29696384  T       0.00000000       0.00000000       0.00000000
W       47.08362476      15.05419317       1.13396183  T       0.00000000       0.00000000       0.00000000
W       45.77677233      17.32056985      -0.74177821  T       0.00000000       0.00000000       0.00000000
W       48.39068900      17.31924411       0.23119854  T       0.00000000       0.00000000       0.00000000
W       51.00460568      17.32056985       1.20417529  T       0.00000000       0.00000000       0.00000000
W       49.69756951      19.58500359      -0.66688893  T       0.00000000       0.00000000       0.00000000
W       52.31108768      19.58812100       0.31073313  T       0.00000000       0.00000000       0.00000000
W       47.08380849      19.58500359       1.12928601  T       0.00000000       0.00000000       0.00000000
W       45.77693417      21.84609723      -0.74729587  F      -0.00000009       0.00000009       0.00000016
W       48.39174856      21.84487242       0.23558068  F      -0.00000000       0.00000026       0.00000011
W       51.00628103      21.84699119       1.21837021  F       0.00000029       0.00000020       0.00000014
W       49.69961412      24.10962280      -0.65207883  F       0.00000053      -0.00000003       0.00000015
W       52.31308827      24.11491934       0.33668082  F      -0.00000019      -0.00000008       0.00000015
W       47.08498270      24.10858544       1.13244522  F      -0.00000010      -0.00000020       0.00000012
W       45.77756765      26.37432879      -0.75318116  F       0.00000006       0.00000018       0.00000002
W       48.39237374      26.37350529       0.24554248  F       0.00000016      -0.00000044      -0.00000009
W       51.00605824      26.37838924       1.24414928  F       0.00000006      -0.00000011       0.00000013
W       49.69925509      28.64123987      -0.62963193  F       0.00000066       0.00000025      -0.00000030
W       52.30974395      28.65279618       0.38132431  F      -0.00000013       0.00000042       0.00000026
W       47.08470249      28.63755737       1.13268797  F      -0.00000006       0.00000009      -0.00000014
W       45.77714826      30.90470559      -0.77031435  F       0.00000002      -0.00000006      -0.00000029
W       48.39130784      30.90221145       0.25830538  F       0.00000009      -0.00000068      -0.00000004
W       51.00213205      30.91639348       1.29203126  F       0.00000002      -0.00000006       0.00000023
W       49.69574382      33.17688203      -0.58387615  F      -0.00000003       0.00000021       0.00000022
W       52.29616149      33.20586192       0.47298928  F       0.00000008      -0.00000001       0.00000040
W       47.08497896      33.16594046       1.12074909  F       0.00000050       0.00000000      -0.00000015
W       45.77182900      35.42915833      -0.84035902  F       0.00000018      -0.00000069       0.00000005
W       48.38528257      35.43981940       0.28432263  F       0.00000047      -0.00000029      -0.00000045
W       50.97960048      35.47832486       1.42135053  F       0.00000005       0.00000025       0.00000031
W       49.68237420      37.75068727      -0.33981068  F       0.00000026      -0.00000079      -0.00000001
W       52.29652027      37.75401585       0.71374436  F      -0.00000004      -0.00000021      -0.00000000
W       47.08470495      37.69092468       1.00377655  F      -0.00000013      -0.00000032      -0.00000041
W       45.81188877      39.97827614      -0.86360751  F       0.00000036      -0.00000042       0.00000049
W       48.39751345      40.04886283       1.00869894  F      -0.00000080       0.00000031      -0.00000010
W       51.00594245      40.03153718       1.82755190  F       0.00000061       0.00000060      -0.00000031
W       49.74089356      42.29332142       0.11698558  F       0.00000010       0.00000057      -0.00000006
W       52.35684346      42.28903617       1.03578991  F       0.00000011      -0.00000046       0.00000036
W       47.04129855      42.25288951       2.85436454  F       0.00000000      -0.00000024      -0.00000034
W       45.75180230      44.51983083       0.91066484  F      -0.00000023       0.00000006       0.00000043
W       48.38822372      44.51372533       1.52855092  F       0.00000017      -0.00000041       0.00000011
W       51.03768495      44.54558038       2.16153823  F      -0.00000004      -0.00000007      -0.00000000
W       49.70634965      46.77335761       0.52045310  F      -0.00000016      -0.00000059       0.00000005
W       52.34173737      46.81089479       1.29288141  F      -0.00000027       0.00000016       0.00000021
W       47.07725571      46.77616746       2.58040601  F       0.00000027       0.00000032       0.00000031
W       45.76838028      49.04795392       0.79183624  F       0.00000018      -0.00000005       0.00000044
W       48.39276238      49.03529623       1.56764684  F      -0.00000009       0.00000002       0.00000058
W       51.01540212      49.04862699       2.34984566  F       0.00000021      -0.00000042       0.00000023
W       49.70224076      51.30527282       0.59801647  F       0.00000020      -0.00000057       0.00000011
W       52.32520846      51.31771592       1.41994593  F      -0.00000030      -0.00000048       0.00000004
W       47.08232063      51.30387057       2.56415531  F      -0.00000033      -0.00000047       0.00000027
W       45.77147527      53.57167470       0.76129173  F      -0.00000007      -0.00000032       0.00000027
W       48.39146167      53.56944016       1.59084437  F       0.00000035      -0.00000020       0.00000021
W       51.01137973      53.57401661       2.42448908  F      -0.00000014      -0.00000045      -0.00000016
W       49.70056658      55.83640883       0.63553788  F      -0.00000002      -0.00000010       0.00000000
W       52.32007418      55.84190259       1.48614903  F       0.00000009       0.00000028      -0.00000010
W       47.08134063      55.83549408       2.56399635  F      -0.00000033       0.00000006      -0.00000003