1796
Lattice="115.328915376333 0.0 0.0 0.0 117.79423952038104 0.0 0.0 0.0 4.530547673860808" Properties=species:S:1:pos:R:3:fix_mask:L:1:forces:R:3 energy=-22449.78518277475 pbc="T T T"
W       11.27547766      55.14181338      -0.00000000  T       0.00000000       0.00000000       0.00000000
W       11.23756243      57.40525607       2.26527384  T       0.00000000       0.00000000       0.00000000
W       14.40209022      59.67677481      -0.00000000  T       0.00000000       0.00000000       0.00000000
W       14.36145015      61.94343232       2.26527384  T       0.00000000       0.00000000       0.00000000
W       14.71377532      41.60207388      -0.00000000  T       0.00000000       0.00000000       0.00000000
W       14.67803292      43.85662328       2.26527384  T       0.00000000       0.00000000       0.00000000
W       14.64098317      46.11224454      -0.00000000  T       0.00000000       0.00000000       0.00000000
W       12.99472303      48.36453620       0.00000000  T       0.00000000       0.00000000       0.00000000
W       14.60280697      48.36911776       2.26527384  T       0.00000000       0.00000000       0.00000000
W       12.95687907      50.62327615       2.26527384  T       0.00000000       0.00000000       0.00000000
W       14.56369901      50.62740064      -0.00000000  T       0.00000000       0.00000000       0.00000000
W       12.91838076      52.88346327       0.00000000  T       0.00000000       0.00000000       0.00000000
W       14.52386311      52.88722385       2.26527384  T       0.00000000       0.00000000       0.00000000
W       12.87941625      55.14518467       2.26527384  T       0.00000000       0.00000000       0.00000000
W       14.48350848      55.14868769      -0.00000000  T       0.00000000       0.00000000       0.00000000
W       12.84017570      57.40849916       0.00000000  T       0.00000000       0.00000000       0.00000000
W       14.44284678      57.41185997       2.26527384  T       0.00000000       0.00000000       0.00000000
W       16.00328695      59.68023751       2.26527384  T       0.00000000       0.00000000       0.00000000
W       17.60443454      59.68383413      -0.00000000  T       0.00000000       0.00000000       0.00000000
W       15.96112237      61.94700384       0.00000000  T       0.00000000       0.00000000       0.00000000
W       17.56062704      61.95072248       2.26527384  T       0.00000000       0.00000000       0.00000000
W       15.91932227      64.21560741       2.26527384  T       0.00000000       0.00000000       0.00000000
W       17.51722884      64.21959105      -0.00000000  T       0.00000000       0.00000000       0.00000000
W       15.87811688      66.48597128       0.00000000  T       0.00000000       0.00000000       0.00000000
W       17.47449779      66.49035021       2.26527384  T       0.00000000       0.00000000       0.00000000
W       15.83773071      68.75798264       2.26527384  T       0.00000000       0.00000000       0.00000000
W       17.43268471      68.76286879      -0.00000000  T       0.00000000       0.00000000       0.00000000
W       17.39202973      71.03697803       2.26527384  T       0.00000000       0.00000000       0.00000000
W       17.35275744      73.31247698      -0.00000000  T       0.00000000       0.00000000       0.00000000
W       17.31507108      75.58913962       2.26527384  T       0.00000000       0.00000000       0.00000000
W       18.00793872      37.11213606      -0.00000000  T       0.00000000       0.00000000       0.00000000
W       16.36069732      39.35583107       0.00000000  T       0.00000000       0.00000000       0.00000000
W       17.97400718      39.36378365       2.26527384  T       0.00000000       0.00000000       0.00000000
W       16.32561899      41.60882424       2.26527384  T       0.00000000       0.00000000       0.00000000
W       17.93811491      41.61604600      -0.00000000  T       0.00000000       0.00000000       0.00000000
W       16.28891275      43.86269733       0.00000000  T       0.00000000       0.00000000       0.00000000
W       17.90041405      43.86918481       2.26527384  T       0.00000000       0.00000000       0.00000000
W       16.25075341      46.11767383       2.26527384  T       0.00000000       0.00000000       0.00000000
W       17.86109266      46.12345475      -0.00000000  T       0.00000000       0.00000000       0.00000000
W       16.21133907      48.37395992       0.00000000  T       0.00000000       0.00000000       0.00000000
W       17.82036780      48.37909275       2.26527384  T       0.00000000       0.00000000       0.00000000
W       16.17088501      50.63173710       2.26527384  T       0.00000000       0.00000000       0.00000000
W       17.77847810      50.63630864      -0.00000000  T       0.00000000       0.00000000       0.00000000
W       16.12961800      52.89115627       0.00000000  T       0.00000000       0.00000000       0.00000000
W       17.73567668      52.89527760       2.26527384  T       0.00000000       0.00000000       0.00000000
W       16.08777150      55.15233353       2.26527384  T       0.00000000       0.00000000       0.00000000
W       17.69222512      55.15613473      -0.00000000  T       0.00000000       0.00000000       0.00000000
W       16.04558207      57.41534743       0.00000000  T       0.00000000       0.00000000       0.00000000
W       17.64838895      57.41897156       2.26527384  T       0.00000000       0.00000000       0.00000000
W       19.20552674      59.68757548       2.26527384  T       0.00000000       0.00000000       0.00000000
W       20.80655624      59.69147375      -0.00000000  T       0.00000000       0.00000000       0.00000000
W       19.15994363      61.95460126       0.00000000  T       0.00000000       0.00000000       0.00000000
W       20.75904813      61.95865506       2.26527384  T       0.00000000       0.00000000       0.00000000
W       19.11482225      64.22376741       2.26527384  T       0.00000000       0.00000000       0.00000000
W       20.71206352      64.22815688      -0.00000000  T       0.00000000       0.00000000       0.00000000
W       19.07045266      66.49496887       0.00000000  T       0.00000000       0.00000000       0.00000000
W       20.66593020      66.49985527       2.26527384  T       0.00000000       0.00000000       0.00000000
W       19.02711618      68.76805231       2.26527384  T       0.00000000       0.00000000       0.00000000
W       20.62096500      68.77356988      -0.00000000  T       0.00000000       0.00000000       0.00000000
W       18.98508076      71.04282112       0.00000000  T       0.00000000       0.00000000       0.00000000
W       20.57746792      71.04907042       2.26527384  T       0.00000000       0.00000000       0.00000000
W       18.94459488      73.31904243       2.26527384  T       0.00000000       0.00000000       0.00000000
W       20.53571430      73.32608576      -0.00000000  T       0.00000000       0.00000000       0.00000000
W       18.90588034      75.59645617       0.00000000  T       0.00000000       0.00000000       0.00000000
W       20.49594587      75.60431552       2.26527384  T       0.00000000       0.00000000       0.00000000
W       18.86912482      77.87478587       2.26527384  T       0.00000000       0.00000000       0.00000000
W       20.45836184      77.88344392      -0.00000000  T       0.00000000       0.00000000       0.00000000
W       20.42311140      80.16315446       2.26527384  T       0.00000000       0.00000000       0.00000000
W       21.30056752      32.63133308      -0.00000000  T       0.00000000       0.00000000       0.00000000
W       19.65482172      34.87077183       0.00000000  T       0.00000000       0.00000000       0.00000000
W       21.27051941      34.88139238       2.26527384  T       0.00000000       0.00000000       0.00000000
W       19.62256517      37.12140308       2.26527384  T       0.00000000       0.00000000       0.00000000
W       21.23792358      37.13134989      -0.00000000  T       0.00000000       0.00000000       0.00000000
W       19.58802917      39.37231538       0.00000000  T       0.00000000       0.00000000       0.00000000
W       21.20281764      39.38149162       2.26527384  T       0.00000000       0.00000000       0.00000000
W       19.55132102      41.62379468       2.26527384  T       0.00000000       0.00000000       0.00000000
W       21.16530075      41.63213399      -0.00000000  T       0.00000000       0.00000000       0.00000000
W       19.51259787      43.87613612       0.00000000  T       0.00000000       0.00000000       0.00000000
W       21.12553249      43.88360984       2.26527384  T       0.00000000       0.00000000       0.00000000
W       19.47206115      46.12963059       2.26527384  T       0.00000000       0.00000000       0.00000000
W       21.08372733      46.13625209      -0.00000000  T       0.00000000       0.00000000       0.00000000
W       19.42994868      48.38455139       0.00000000  T       0.00000000       0.00000000       0.00000000
W       21.04014554      48.39037714       2.26527384  T       0.00000000       0.00000000       0.00000000
W       19.38652557      50.64114223       2.26527384  T       0.00000000       0.00000000       0.00000000
W       20.99508221      50.64626950      -0.00000000  T       0.00000000       0.00000000       0.00000000
W       19.34207533      52.89960758       0.00000000  T       0.00000000       0.00000000       0.00000000
W       20.94885611      52.90416921       2.26527384  T       0.00000000       0.00000000       0.00000000
W       19.29689234      55.16010561       2.26527384  T       0.00000000       0.00000000       0.00000000
W       20.90180002      55.16426258      -0.00000000  T       0.00000000       0.00000000       0.00000000
W       19.25127598      57.42274358       0.00000000  T       0.00000000       0.00000000       0.00000000
W       20.85425316      57.42667620       2.26527384  T       0.00000000       0.00000000       0.00000000
W       22.40751437      59.69554273       2.26527384  T       0.00000000       0.00000000       0.00000000
W       24.00839083      59.69979813      -0.00000000  T       0.00000000       0.00000000       0.00000000
W       22.35791231      61.96290099       0.00000000  T       0.00000000       0.00000000       0.00000000
W       23.95650271      61.96735884       2.26527384  T       0.00000000       0.00000000       0.00000000
W       22.30890698      64.23278328       2.26527384  T       0.00000000       0.00000000       0.00000000
W       23.90529883      64.23767465      -0.00000000  T       0.00000000       0.00000000       0.00000000
W       22.26087069      66.50504239       0.00000000  T       0.00000000       0.00000000       0.00000000
W       23.85520434      66.51056938       2.26527384  T       0.00000000       0.00000000       0.00000000
W       22.21416187      68.77946480       2.26527384  T       0.00000000       0.00000000       0.00000000
W       23.80662663      68.78578848      -0.00000000  T       0.00000000       0.00000000       0.00000000
W       22.16911746      71.05577918       0.00000000  T       0.00000000       0.00000000       0.00000000
W       23.75994538      71.06301026       2.26527384  T       0.00000000       0.00000000       0.00000000
W       22.12604295      73.33366830       2.26527384  T       0.00000000       0.00000000       0.00000000
W       23.71549971      73.34186168      -0.00000000  T       0.00000000       0.00000000       0.00000000
W       22.08520116      75.61278406       0.00000000  T       0.00000000       0.00000000       0.00000000
W       23.67357414      75.62193802       2.26527384  T       0.00000000       0.00000000       0.00000000
W       22.04680154      77.89276512       2.26527384  T       0.00000000       0.00000000       0.00000000
W       23.63438592      77.90282540      -0.00000000  T       0.00000000       0.00000000       0.00000000
W       22.01099195      80.17325521       0.00000000  T       0.00000000       0.00000000       0.00000000
W       23.59807624      80.18412352       2.26527384  T       0.00000000       0.00000000       0.00000000
W       21.97785442      82.45392039       2.26527384  T       0.00000000       0.00000000       0.00000000
W       23.56470726      82.46546597      -0.00000000  T       0.00000000       0.00000000       0.00000000
W       23.53426555      84.74653581       2.26527384  T       0.00000000       0.00000000       0.00000000
W       24.58540985      28.15570879      -0.00000000  T       0.00000000       0.00000000       0.00000000
W       22.94435590      30.39322665       0.00000000  T       0.00000000       0.00000000       0.00000000
W       24.56111218      30.40625816       2.26527384  T       0.00000000       0.00000000       0.00000000
W       22.91699858      32.64324657       2.26527384  T       0.00000000       0.00000000       0.00000000
W       24.53403626      32.65594653      -0.00000000  T       0.00000000       0.00000000       0.00000000
W       22.88691603      34.89276828       0.00000000  T       0.00000000       0.00000000       0.00000000
W       24.50403034      34.90496335       2.26527384  T       0.00000000       0.00000000       0.00000000
W       22.85405543      37.14204591       2.26527384  T       0.00000000       0.00000000       0.00000000
W       24.47099992      37.15356672      -0.00000000  T       0.00000000       0.00000000       0.00000000
W       22.81842948      39.39138601       0.00000000  T       0.00000000       0.00000000       0.00000000
W       24.43492323      39.40208122       2.26527384  T       0.00000000       0.00000000       0.00000000
W       22.78012306      41.64113716       2.26527384  T       0.00000000       0.00000000       0.00000000
W       24.39586246      41.65088833      -0.00000000  T       0.00000000       0.00000000       0.00000000
W       22.73929420      43.89167426       0.00000000  T       0.00000000       0.00000000       0.00000000
W       24.35396808      43.90040927       2.26527384  T       0.00000000       0.00000000       0.00000000
W       22.69616910      46.14337897       2.26527384  T       0.00000000       0.00000000       0.00000000
W       24.30430370      46.14904201       0.00000000  F       0.00019628       0.00011998      -0.00000000
W       22.65103197      48.39661889       0.00000000  T       0.00000000       0.00000000       0.00000000
W       24.25826451      48.40272497       2.26527384  F       0.00018458       0.00023408       0.00000000
W       22.60014540      50.65102113       2.26527384  F      -0.00017930      -0.00015078      -0.00000000
W       24.20919245      50.65861996      -0.00000000  F       0.00006249       0.00020458       0.00000000
W       22.55195603      52.90959258      -0.00000000  F      -0.00017673      -0.00009874      -0.00000000
W       24.15845124      52.91575070       2.26527384  F      -0.00011534       0.00001078       0.00000000
W       22.50275041      55.17068734       2.26527384  F      -0.00011469       0.00010358      -0.00000000
W       24.10752853      55.17568646      -0.00000000  F      -0.00003660      -0.00006192       0.00000000
W       22.45241560      57.43392460      -0.00000000  F      -0.00029216       0.00011579       0.00000000
W       24.05705224      57.43694765       2.26527384  F       0.00004084      -0.00001861      -0.00000000
W       25.60693509      59.70704229       2.26527384  F       0.00054271      -0.00019843      -0.00000000
W       27.20734390      59.71198953      -0.00000000  F       0.00044792      -0.00003264       0.00000000
W       25.55225781      61.97519583      -0.00000000  F       0.00046422      -0.00005436       0.00000000
W       27.14990718      61.98059516       2.26527384  F       0.00061017      -0.00006673      -0.00000000
W       25.49839313      64.24624404       2.26527384  F       0.00074948      -0.00000277       0.00000000
W       27.09308436      64.25232601      -0.00000000  F       0.00077370      -0.00006238       0.00000000
W       25.44561828      66.51968318       0.00000000  F       0.00030759      -0.00004637      -0.00000000
W       27.03852384      66.52656584       2.26527384  F       0.00082237      -0.00005907       0.00000000
W       25.39826623      68.79260240       2.26527384  T       0.00000000       0.00000000       0.00000000
W       26.98569894      68.80454291       0.00000000  F       0.00086088      -0.00021913       0.00000000
W       25.34985589      71.07083824       0.00000000  T       0.00000000       0.00000000       0.00000000
W       26.93453933      71.08358348       2.26527384  F       0.00038653      -0.00022717      -0.00000000
W       25.30399434      73.35074971       2.26527384  T       0.00000000       0.00000000       0.00000000
W       26.89142697      73.36043061      -0.00000000  T       0.00000000       0.00000000       0.00000000
W       25.26098749      75.63186488       0.00000000  T       0.00000000       0.00000000       0.00000000
W       26.84735939      75.64266480       2.26527384  T       0.00000000       0.00000000       0.00000000
W       25.22105605      77.91370964       2.26527384  T       0.00000000       0.00000000       0.00000000
W       26.80675402      77.92551204      -0.00000000  T       0.00000000       0.00000000       0.00000000
W       25.18432683      80.19583573       0.00000000  T       0.00000000       0.00000000       0.00000000
W       26.76971222      80.20847320       2.26527384  T       0.00000000       0.00000000       0.00000000
W       25.15083218      82.47784438       2.26527384  T       0.00000000       0.00000000       0.00000000
W       26.73622337      82.49111916      -0.00000000  T       0.00000000       0.00000000       0.00000000
W       25.12051769      84.75940256       0.00000000  T       0.00000000       0.00000000       0.00000000
W       26.70617900      84.77310668       2.26527384  T       0.00000000       0.00000000       0.00000000
W       25.09325643      87.04025081       2.26527384  T       0.00000000       0.00000000       0.00000000
W       26.67939376      87.05418303      -0.00000000  T       0.00000000       0.00000000       0.00000000
W       26.65562932      89.33418114       2.26527384  T       0.00000000       0.00000000       0.00000000
W       26.22308802      25.91795899       0.00000000  T       0.00000000       0.00000000       0.00000000
W       27.83920528      25.93229670       2.26527384  T       0.00000000       0.00000000       0.00000000
W       26.20205402      28.16957489       2.26527384  T       0.00000000       0.00000000       0.00000000
W       27.81897265      28.18410678      -0.00000000  T       0.00000000       0.00000000       0.00000000
W       26.17832800      30.42004783       0.00000000  T       0.00000000       0.00000000       0.00000000
W       27.79596009      30.43461317       2.26527384  T       0.00000000       0.00000000       0.00000000
W       26.15166920      32.66947915       2.26527384  T       0.00000000       0.00000000       0.00000000
W       27.76987226      32.68388501      -0.00000000  T       0.00000000       0.00000000       0.00000000
W       26.12187280      34.91804272       0.00000000  T       0.00000000       0.00000000       0.00000000
W       27.74044217      34.93207059       2.26527384  T       0.00000000       0.00000000       0.00000000
W       26.08879163      37.16599352       2.26527384  T       0.00000000       0.00000000       0.00000000
W       27.70745748      37.17941198      -0.00000000  T       0.00000000       0.00000000       0.00000000
W       26.05235750      39.41366948       0.00000000  T       0.00000000       0.00000000       0.00000000
W       27.66330710      39.42009698       2.26527384  F       0.00022560       0.00039229       0.00000000
W       26.00498893      41.65642002       2.26527384  F       0.00019609       0.00032597       0.00000000
W       27.62338754      41.66865948       0.00000000  F       0.00030977       0.00052300      -0.00000000
W       25.96382035      43.90663435      -0.00000000  F       0.00034350       0.00032110       0.00000000
W       27.57792133      43.91637563       2.26527384  F       0.00034280       0.00048743       0.00000000
W       25.91775370      46.15858830       2.26527384  F       0.00030853       0.00038258      -0.00000000
W       27.52984489      46.16700680      -0.00000000  F       0.00012465       0.00033908       0.00000000
W       25.86905974      48.41057513      -0.00000000  F       0.00025425       0.00017828       0.00000000
W       27.48076654      48.41903664       2.26527384  F       0.00023544       0.00027397      -0.00000000
W       25.81766865      50.66531331       2.26527384  F       0.00011296       0.00010095       0.00000000
W       27.42844500      50.67210896       0.00000000  F       0.00002523       0.00006162      -0.00000000
W       25.76592836      52.92199519       0.00000000  F      -0.00009077       0.00000096      -0.00000000
W       27.37476165      52.92755082       2.26527384  F      -0.00004012       0.00008369       0.00000000
W       25.71308268      55.18028531       2.26527384  F       0.00015156      -0.00004644      -0.00000000
W       27.31980208      55.18574497      -0.00000000  F      -0.00002769      -0.00001174       0.00000000
W       25.65953294      57.44170367       0.00000000  F       0.00003980      -0.00016282      -0.00000000
W       27.26352865      57.44707126       2.26527384  F       0.00022014      -0.00006311       0.00000000
W       28.80761415      59.71748713       2.26527384  F       0.00005972       0.00021270       0.00000000
W       30.40810868      59.72321228      -0.00000000  F      -0.00073634       0.00030680      -0.00000000
W       28.74682463      61.98634213      -0.00000000  F       0.00039145       0.00005310       0.00000000
W       30.34402950      61.99252259       2.26527384  F      -0.00020544       0.00023096      -0.00000000
W       28.68731950      64.25868222       2.26527384  F       0.00070184       0.00004350      -0.00000000
W       30.28086266      64.26601501      -0.00000000  F      -0.00012362       0.00024692       0.00000000
W       28.62898694      66.53464843      -0.00000000  F       0.00044265       0.00000530       0.00000000
W       30.21992538      66.54301411       2.26527384  F       0.00032151       0.00001826      -0.00000000
W       28.57449765      68.81350440       2.26527384  F       0.00108357      -0.00025443      -0.00000000
W       30.16234982      68.82274851      -0.00000000  F       0.00056395      -0.00016754      -0.00000000
W       28.52284199      71.09393427      -0.00000000  F       0.00081619      -0.00039088       0.00000000
W       30.10752527      71.10552638       2.26527384  F       0.00047119      -0.00046297       0.00000000
W       28.47398278      73.37717184       2.26527384  F       0.00083745      -0.00039737       0.00000000
W       30.05820347      73.38989247       0.00000000  F       0.00068134      -0.00030317      -0.00000000
W       28.42715449      75.66032951       0.00000000  F       0.00060958      -0.00022825      -0.00000000
W       30.01323252      75.67374394       2.26527384  F       0.00088163      -0.00044697      -0.00000000
W       28.39142573      77.93833594       2.26527384  T       0.00000000       0.00000000       0.00000000
W       29.97085209      77.95877184       0.00000000  F       0.00080782      -0.00049351      -0.00000000
W       28.35421039      80.22212062       0.00000000  T       0.00000000       0.00000000       0.00000000
W       29.93781349      80.23686341       2.26527384  T       0.00000000       0.00000000       0.00000000
W       28.32088835      82.50535161       2.26527384  T       0.00000000       0.00000000       0.00000000
W       29.90485226      82.52059705      -0.00000000  T       0.00000000       0.00000000       0.00000000
W       28.29128120      84.78768458       0.00000000  T       0.00000000       0.00000000       0.00000000
W       29.87587445      84.80316166       2.26527384  T       0.00000000       0.00000000       0.00000000
W       28.26513251      87.06888429       2.26527384  T       0.00000000       0.00000000       0.00000000
W       29.85053920      87.08435339      -0.00000000  T       0.00000000       0.00000000       0.00000000
W       28.24213846      89.34881301       0.00000000  T       0.00000000       0.00000000       0.00000000
W       29.82846926      89.36407598       2.26527384  T       0.00000000       0.00000000       0.00000000
W       28.22197482      91.62741310       2.26527384  T       0.00000000       0.00000000       0.00000000
W       29.80928137      91.64231586      -0.00000000  T       0.00000000       0.00000000       0.00000000
W       29.47220653      23.69358827       2.26527384  T       0.00000000       0.00000000       0.00000000
W       31.08734649      23.70833581      -0.00000000  T       0.00000000       0.00000000       0.00000000
W       29.45539941      25.94715253       0.00000000  T       0.00000000       0.00000000       0.00000000
W       31.07158534      25.96247544       2.26527384  T       0.00000000       0.00000000       0.00000000
W       29.43609597      28.19928720       2.26527384  T       0.00000000       0.00000000       0.00000000
W       31.05333871      28.21508109      -0.00000000  T       0.00000000       0.00000000       0.00000000
W       29.41394860      30.44995900       0.00000000  T       0.00000000       0.00000000       0.00000000
W       31.03221487      30.46607293       2.26527384  T       0.00000000       0.00000000       0.00000000
W       29.38860310      32.69919530       2.26527384  T       0.00000000       0.00000000       0.00000000
W       31.00779847      32.71542692      -0.00000000  T       0.00000000       0.00000000       0.00000000
W       29.35972146      34.94710694       0.00000000  T       0.00000000       0.00000000       0.00000000
W       30.97246269      34.95480549       2.26527384  F       0.00029645       0.00038262       0.00000000
W       29.31965670      37.18662336       2.26527384  F       0.00019900       0.00041388      -0.00000000
W       30.94053481      37.20237435      -0.00000000  F       0.00024536       0.00049390       0.00000000
W       29.28305374      39.43405528       0.00000000  F       0.00028774       0.00053971      -0.00000000
W       30.89851732      39.44744664       2.26527384  F       0.00004707       0.00067576       0.00000000
W       29.23751142      41.68004504       2.26527384  F       0.00008770       0.00063710       0.00000000
W       30.85707137      41.69346117       0.00000000  F      -0.00003680       0.00067470      -0.00000000
W       29.19347840      43.92811295      -0.00000000  F       0.00013756       0.00055946      -0.00000000
W       30.81025220      43.93894026       2.26527384  F       0.00008650       0.00043894      -0.00000000
W       29.14463618      46.17629812       2.26527384  F       0.00019199       0.00037394      -0.00000000
W       30.76058261      46.18645996       0.00000000  F      -0.00020568       0.00027903       0.00000000
W       29.09374601      48.42664721       0.00000000  F      -0.00011751       0.00014680       0.00000000
W       30.70790187      48.43534178       2.26527384  F      -0.00004556       0.00018981       0.00000000
W       29.03987214      50.67914473       2.26527384  F      -0.00002262       0.00015335      -0.00000000
W       30.65213664      50.68647951      -0.00000000  F      -0.00018719       0.00026603       0.00000000
W       28.98405178      52.93380938       0.00000000  F      -0.00041012       0.00020431      -0.00000000
W       30.59407199      52.94037089       2.26527384  F      -0.00025727       0.00022624       0.00000000
W       28.92646250      55.19149830       2.26527384  F      -0.00017645       0.00019578       0.00000000
W       30.53371591      55.19737693      -0.00000000  F      -0.00048455       0.00045338       0.00000000
W       28.86723131      57.45261125      -0.00000000  F       0.00008112       0.00016741      -0.00000000
W       30.47139908      57.45819467       2.26527384  F      -0.00027326       0.00026191      -0.00000000
W       32.00833204      59.72908874       2.26527384  F      -0.00144230       0.00033738       0.00000000
W       33.60805684      59.73526287      -0.00000000  F      -0.00088630       0.00047753       0.00000000
W       31.94014363      61.99908976      -0.00000000  F      -0.00057443       0.00027318       0.00000000
W       33.53575894      62.00596903       2.26527384  F      -0.00036273       0.00009396       0.00000000
W       31.87358750      64.27354716       2.26527384  F      -0.00110248       0.00043007      -0.00000000
W       33.46489608      64.28167911      -0.00000000  F      -0.00064984       0.00028532      -0.00000000
W       31.80919637      66.55197391       0.00000000  F      -0.00048352       0.00025647      -0.00000000
W       33.39722652      66.56167326       2.26527384  F      -0.00079861       0.00039948       0.00000000
W       31.74895827      68.83373525       2.26527384  F      -0.00022560       0.00010859       0.00000000
W       33.33416928      68.84495362       0.00000000  F      -0.00068581       0.00024245      -0.00000000
W       31.69272426      71.11758382       0.00000000  F       0.00003189      -0.00026189      -0.00000000
W       33.27611359      71.13033753       2.26527384  F      -0.00060049      -0.00004169       0.00000000
W       31.64162199      73.40237130       2.26527384  F       0.00029214      -0.00045325       0.00000000
W       33.22377616      73.41702755       0.00000000  F      -0.00040111       0.00002741      -0.00000000
W       31.59410056      75.68856641      -0.00000000  F       0.00025730      -0.00056041       0.00000000
W       33.17715716      75.70337877       2.26527384  F      -0.00004842      -0.00030731      -0.00000000