1668
Lattice="119.55173308782788 0.0 0.0 0.0 112.71445489200968 0.0 0.0 0.0 4.696435620500402" Properties=species:S:1:pos:R:3:fix_mask:L:1:forces:R:3 energy=-16620.30212875103 pbc="T T T"
Nb      15.49154018      45.71538102       2.34821781  T       0.00000000       0.00000000       0.00000000
Nb      15.42896964      48.05394384      -0.00000000  T       0.00000000       0.00000000       0.00000000
Nb      15.34040708      50.39189552       2.34821781  T       0.00000000       0.00000000       0.00000000
Nb      13.54629405      52.72882505       2.34821781  T       0.00000000       0.00000000       0.00000000
Nb      15.21476223      52.73035213      -0.00000000  T       0.00000000       0.00000000       0.00000000
Nb      13.38341591      55.07077545       0.00000000  T       0.00000000       0.00000000       0.00000000
Nb      15.04733043      55.07190167       2.34821781  T       0.00000000       0.00000000       0.00000000
Nb      16.51573107      57.42079936       2.34821781  T       0.00000000       0.00000000       0.00000000
Nb      18.17267204      57.42198969      -0.00000000  T       0.00000000       0.00000000       0.00000000
Nb      16.34129513      59.77529925       0.00000000  T       0.00000000       0.00000000       0.00000000
Nb      17.99305813      59.77692241       2.34821781  T       0.00000000       0.00000000       0.00000000
Nb      17.86160736      62.13534052      -0.00000000  T       0.00000000       0.00000000       0.00000000
Nb      17.77127470      64.49421625       2.34821781  T       0.00000000       0.00000000       0.00000000
Nb      17.70862434      66.85235601      -0.00000000  T       0.00000000       0.00000000       0.00000000
Nb      18.95031093      36.35874857       2.34821781  T       0.00000000       0.00000000       0.00000000
Nb      18.93086246      38.70051158      -0.00000000  T       0.00000000       0.00000000       0.00000000
Nb      17.23848014      41.03847552       0.00000000  T       0.00000000       0.00000000       0.00000000
Nb      18.90614645      41.04154483       2.34821781  T       0.00000000       0.00000000       0.00000000
Nb      17.20533978      43.37874364       2.34821781  T       0.00000000       0.00000000       0.00000000
Nb      18.87386828      43.38171380      -0.00000000  T       0.00000000       0.00000000       0.00000000
Nb      17.16085290      45.71806238       0.00000000  T       0.00000000       0.00000000       0.00000000
Nb      18.83034442      45.72088136       2.34821781  T       0.00000000       0.00000000       0.00000000
Nb      17.09910869      48.05639183       2.34821781  T       0.00000000       0.00000000       0.00000000
Nb      18.76952414      48.05897511      -0.00000000  T       0.00000000       0.00000000       0.00000000
Nb      17.01081318      50.39398922       0.00000000  T       0.00000000       0.00000000       0.00000000
Nb      18.68163098      50.39620709       2.34821781  T       0.00000000       0.00000000       0.00000000
Nb      16.88369445      52.73196445       2.34821781  T       0.00000000       0.00000000       0.00000000
Nb      18.55312778      52.73367099      -0.00000000  T       0.00000000       0.00000000       0.00000000
Nb      16.71149552      55.07307525       0.00000000  T       0.00000000       0.00000000       0.00000000
Nb      18.37593908      55.07430048       2.34821781  T       0.00000000       0.00000000       0.00000000
Nb      19.82933318      57.42323265       2.34821781  T       0.00000000       0.00000000       0.00000000
Nb      21.48568020      57.42453327      -0.00000000  T       0.00000000       0.00000000       0.00000000
Nb      19.64428949      59.77864183       0.00000000  T       0.00000000       0.00000000       0.00000000
Nb      21.29494514      59.78046823       2.34821781  T       0.00000000       0.00000000       0.00000000
Nb      19.51139695      62.13758262       2.34821781  T       0.00000000       0.00000000       0.00000000
Nb      21.16073885      62.13996422      -0.00000000  T       0.00000000       0.00000000       0.00000000
Nb      19.42153169      64.49682779       0.00000000  T       0.00000000       0.00000000       0.00000000
Nb      21.07150214      64.49958908       2.34821781  T       0.00000000       0.00000000       0.00000000
Nb      19.35987098      66.85520231       2.34821781  T       0.00000000       0.00000000       0.00000000
Nb      21.01093859      66.85819946      -0.00000000  T       0.00000000       0.00000000       0.00000000
Nb      19.31599487      69.21248587       0.00000000  T       0.00000000       0.00000000       0.00000000
Nb      20.96813640      69.21563004       2.34821781  T       0.00000000       0.00000000       0.00000000
Nb      19.28357723      71.56875573       2.34821781  T       0.00000000       0.00000000       0.00000000
Nb      20.93665027      71.57199414      -0.00000000  T       0.00000000       0.00000000       0.00000000
Nb      20.91267174      73.92745443       2.34821781  T       0.00000000       0.00000000       0.00000000
Nb      20.89387474      76.28216046      -0.00000000  T       0.00000000       0.00000000       0.00000000
Nb      22.30954013      31.68037523       2.34821781  T       0.00000000       0.00000000       0.00000000
Nb      20.63177486      34.01972577       2.34821781  T       0.00000000       0.00000000       0.00000000
Nb      22.29760663      34.02323313      -0.00000000  T       0.00000000       0.00000000       0.00000000
Nb      20.61665429      36.36207307       0.00000000  T       0.00000000       0.00000000       0.00000000
Nb      22.28303455      36.36555167       2.34821781  T       0.00000000       0.00000000       0.00000000
Nb      20.59784501      38.70379187       2.34821781  T       0.00000000       0.00000000       0.00000000
Nb      22.26487993      38.70722810      -0.00000000  T       0.00000000       0.00000000       0.00000000
Nb      20.57389064      41.04476017       0.00000000  T       0.00000000       0.00000000       0.00000000
Nb      22.24171113      41.04813346       2.34821781  T       0.00000000       0.00000000       0.00000000
Nb      20.54251299      43.38483175       2.34821781  T       0.00000000       0.00000000       0.00000000
Nb      22.21127249      43.38810966      -0.00000000  T       0.00000000       0.00000000       0.00000000
Nb      20.50001494      45.72384918       0.00000000  T       0.00000000       0.00000000       0.00000000
Nb      22.16986423      45.72697840       2.34821781  T       0.00000000       0.00000000       0.00000000
Nb      20.44022092      48.06170541       2.34821781  T       0.00000000       0.00000000       0.00000000
Nb      22.11120342      48.06459586      -0.00000000  T       0.00000000       0.00000000       0.00000000
Nb      20.35287850      50.39856114       0.00000000  T       0.00000000       0.00000000       0.00000000
Nb      22.02457395      50.40106495       2.34821781  T       0.00000000       0.00000000       0.00000000
Nb      20.22310270      52.73548203       2.34821781  T       0.00000000       0.00000000       0.00000000
Nb      21.89366342      52.73740939      -0.00000000  T       0.00000000       0.00000000       0.00000000
Nb      20.04069328      55.07558228       0.00000000  T       0.00000000       0.00000000       0.00000000
Nb      21.70579538      55.07692631       2.34821781  T       0.00000000       0.00000000       0.00000000
Nb      23.14167307      57.42589735       2.34821781  T       0.00000000       0.00000000       0.00000000
Nb      24.79726481      57.42733164      -0.00000000  T       0.00000000       0.00000000       0.00000000
Nb      22.94497699      59.78241395       0.00000000  T       0.00000000       0.00000000       0.00000000
Nb      24.59433262      59.78449331       2.34821781  T       0.00000000       0.00000000       0.00000000
Nb      22.80961474      62.14249933       2.34821781  T       0.00000000       0.00000000       0.00000000
Nb      24.45800651      62.14520377      -0.00000000  T       0.00000000       0.00000000       0.00000000
Nb      22.72118239      64.50251348       0.00000000  T       0.00000000       0.00000000       0.00000000
Nb      24.37056955      64.50561602       2.34821781  T       0.00000000       0.00000000       0.00000000
Nb      22.66182803      66.86136015       2.34821781  T       0.00000000       0.00000000       0.00000000
Nb      24.31254069      66.86469867      -0.00000000  T       0.00000000       0.00000000       0.00000000
Nb      22.62016523      69.21893575       0.00000000  T       0.00000000       0.00000000       0.00000000
Nb      24.27208355      69.22241678       2.34821781  T       0.00000000       0.00000000       0.00000000
Nb      22.58964932      71.57539168       2.34821781  T       0.00000000       0.00000000       0.00000000
Nb      24.24257647      71.57896183      -0.00000000  T       0.00000000       0.00000000       0.00000000
Nb      22.56647625      73.93091185       0.00000000  T       0.00000000       0.00000000       0.00000000
Nb      24.22023233      73.93453939       2.34821781  T       0.00000000       0.00000000       0.00000000
Nb      22.54834689      76.28565767       2.34821781  T       0.00000000       0.00000000       0.00000000
Nb      24.20278555      76.28932278      -0.00000000  T       0.00000000       0.00000000       0.00000000
Nb      22.53381081      78.63975995       0.00000000  T       0.00000000       0.00000000       0.00000000
Nb      24.18881659      78.64344965       2.34821781  T       0.00000000       0.00000000       0.00000000
Nb      24.17739792      80.99702786      -0.00000000  T       0.00000000       0.00000000       0.00000000
Nb      25.65716789      27.00094036       2.34821781  T       0.00000000       0.00000000       0.00000000
Nb      23.98446502      29.34076087       2.34821781  T       0.00000000       0.00000000       0.00000000
Nb      25.64946306      29.34463802      -0.00000000  T       0.00000000       0.00000000       0.00000000
Nb      23.97492662      31.68406545       0.00000000  T       0.00000000       0.00000000       0.00000000
Nb      25.64033022      31.68793354       2.34821781  T       0.00000000       0.00000000       0.00000000
Nb      23.96346374      34.02690574       2.34821781  T       0.00000000       0.00000000       0.00000000
Nb      25.62934491      34.03075816      -0.00000000  T       0.00000000       0.00000000       0.00000000
Nb      23.94945036      36.36919739       0.00000000  T       0.00000000       0.00000000       0.00000000
Nb      25.61590025      36.37302497       2.34821781  T       0.00000000       0.00000000       0.00000000
Nb      23.93196565      38.71083346       2.34821781  T       0.00000000       0.00000000       0.00000000
Nb      25.59910046      38.71462293      -0.00000000  T       0.00000000       0.00000000       0.00000000
Nb      23.90960616      41.05167809       0.00000000  T       0.00000000       0.00000000       0.00000000
Nb      25.57757377      41.05540927       2.34821781  T       0.00000000       0.00000000       0.00000000
Nb      23.88014506      43.39156123       2.34821781  T       0.00000000       0.00000000       0.00000000
Nb      25.54912868      43.39520197      -0.00000000  T       0.00000000       0.00000000       0.00000000
Nb      23.83989160      45.73028315       0.00000000  T       0.00000000       0.00000000       0.00000000
Nb      25.50036643      45.72218224       2.34821781  F       0.00024638       0.00062945      -0.00000000
Nb      23.78247541      48.06766124       2.34821781  T       0.00000000       0.00000000       0.00000000
Nb      25.43590071      48.05926976       0.00000000  F       0.00077965       0.00111570      -0.00000000
Nb      23.69673550      50.40373387       0.00000000  T       0.00000000       0.00000000       0.00000000
Nb      25.33962650      50.40146480       2.34821781  F       0.00067959       0.00060797       0.00000000
Nb      23.56485819      52.73946677       2.34821781  T       0.00000000       0.00000000       0.00000000
Nb      25.19532380      52.75291684      -0.00000000  F       0.00082441       0.00014542      -0.00000000
Nb      23.34573773      55.08643616      -0.00000000  F      -0.00014810      -0.00041877       0.00000000
Nb      25.00630318      55.10030799       2.34821781  F       0.00039149       0.00014426      -0.00000000
Nb      26.45462709      57.45659421       2.34821781  F       0.00048428      -0.00014289      -0.00000000
Nb      28.11199582      57.46647910      -0.00000000  F       0.00049683       0.00056320       0.00000000
Nb      26.24295500      59.78672298       0.00000000  T       0.00000000       0.00000000       0.00000000
Nb      27.91820860      59.81118497       2.34821781  F       0.00050773       0.00094543      -0.00000000
Nb      26.10589655      62.14809554       2.34821781  T       0.00000000       0.00000000       0.00000000
Nb      27.76672976      62.15226658      -0.00000000  F       0.00017735       0.00010320       0.00000000
Nb      26.01966163      64.50891370       0.00000000  T       0.00000000       0.00000000       0.00000000
Nb      27.67011775      64.50772994       2.34821781  F       0.00021786       0.00033128       0.00000000
Nb      25.96307853      66.86823115       2.34821781  T       0.00000000       0.00000000       0.00000000
Nb      27.60845388      66.86823240      -0.00000000  F       0.00039863      -0.00009300      -0.00000000
Nb      25.92389389      69.22608876       0.00000000  T       0.00000000       0.00000000       0.00000000
Nb      27.57559912      69.22996948       2.34821781  T       0.00000000       0.00000000       0.00000000
Nb      25.89543402      71.58271987       2.34821781  T       0.00000000       0.00000000       0.00000000
Nb      27.54822446      71.58668321      -0.00000000  T       0.00000000       0.00000000       0.00000000
Nb      25.87394194      73.93835206       0.00000000  T       0.00000000       0.00000000       0.00000000
Nb      27.52760716      73.94236700       2.34821781  T       0.00000000       0.00000000       0.00000000
Nb      25.85719237      76.29317058       2.34821781  T       0.00000000       0.00000000       0.00000000
Nb      27.51156911      76.29721793      -0.00000000  T       0.00000000       0.00000000       0.00000000
Nb      25.84380021      78.64731981       0.00000000  T       0.00000000       0.00000000       0.00000000
Nb      27.49876319      78.65138705       2.34821781  T       0.00000000       0.00000000       0.00000000
Nb      25.83286456      81.00091163       2.34821781  T       0.00000000       0.00000000       0.00000000
Nb      27.48831707      81.00499014      -0.00000000  T       0.00000000       0.00000000       0.00000000
Nb      25.82377680      83.35403334       0.00000000  T       0.00000000       0.00000000       0.00000000
Nb      27.47964329      83.35811693       2.34821781  T       0.00000000       0.00000000       0.00000000
Nb      27.47233278      85.71083788      -0.00000000  T       0.00000000       0.00000000       0.00000000
Nb      27.32810277      24.66096497       2.34821781  T       0.00000000       0.00000000       0.00000000
Nb      28.99245904      24.66523983      -0.00000000  T       0.00000000       0.00000000       0.00000000
Nb      27.32182521      27.00501157       0.00000000  T       0.00000000       0.00000000       0.00000000
Nb      28.98648864      27.00929075       2.34821781  T       0.00000000       0.00000000       0.00000000
Nb      27.31447207      29.34870723       2.34821781  T       0.00000000       0.00000000       0.00000000
Nb      28.97949077      29.35298686      -0.00000000  T       0.00000000       0.00000000       0.00000000
Nb      27.30574968      31.69199581       0.00000000  T       0.00000000       0.00000000       0.00000000
Nb      28.97118363      31.69627098       2.34821781  T       0.00000000       0.00000000       0.00000000
Nb      27.29524875      34.03480696       2.34821781  T       0.00000000       0.00000000       0.00000000
Nb      28.96117374      34.03907116      -0.00000000  T       0.00000000       0.00000000       0.00000000
Nb      27.28238263      36.37705124       0.00000000  T       0.00000000       0.00000000       0.00000000
Nb      28.94889578      36.38129551       2.34821781  T       0.00000000       0.00000000       0.00000000
Nb      27.26628252      38.71861356       2.34821781  T       0.00000000       0.00000000       0.00000000
Nb      28.93364890      38.71689069      -0.00000000  F       0.00000892      -0.00046927      -0.00000000
Nb      27.24561181      41.05934436       0.00000000  T       0.00000000       0.00000000       0.00000000
Nb      28.91783382      41.05212569       2.34821781  F       0.00008691      -0.00021711       0.00000000
Nb      27.21698968      43.38716987       2.34821781  F       0.00035848      -0.00068153      -0.00000000
Nb      28.88924846      43.38692183      -0.00000000  F       0.00048344      -0.00014185      -0.00000000
Nb      27.17077939      45.72258110      -0.00000000  F      -0.00039147       0.00040179       0.00000000
Nb      28.83795648      45.72211263       2.34821781  F      -0.00027424       0.00056071      -0.00000000
Nb      27.09788276      48.05988541       2.34821781  F       0.00030187       0.00001234      -0.00000000
Nb      28.75750718      48.06267869      -0.00000000  F      -0.00038815      -0.00010001       0.00000000
Nb      26.99256410      50.40635175       0.00000000  F       0.00019277       0.00032781      -0.00000000
Nb      28.64358884      50.41057394       2.34821781  F      -0.00013476       0.00020457       0.00000000
Nb      26.84511051      52.75938642       2.34821781  F       0.00018438       0.00048344       0.00000000
Nb      28.49365455      52.76379246       0.00000000  F      -0.00020845       0.00037061      -0.00000000
Nb      26.66219221      55.10795974      -0.00000000  F       0.00097716       0.00075589      -0.00000000
Nb      28.31203871      55.11753519       2.34821781  F       0.00042964       0.00023787       0.00000000
Nb      29.76855549      57.47226667       2.34821781  F       0.00015153      -0.00107972       0.00000000
Nb      31.42530942      57.47243529       0.00000000  F       0.00009772      -0.00066328      -0.00000000
Nb      29.58201936      59.81737267      -0.00000000  F       0.00047157      -0.00039419       0.00000000
Nb      31.24408497      59.81964679       2.34821781  F      -0.00061997      -0.00022520      -0.00000000
Nb      29.42908650      62.16040499       2.34821781  F       0.00033324      -0.00012052      -0.00000000
Nb      31.09171725      62.16493959      -0.00000000  F       0.00054581      -0.00028761       0.00000000
Nb      29.32549313      64.51104500       0.00000000  F      -0.00004918      -0.00000555      -0.00000000
Nb      30.98234590      64.51441590       2.34821781  F       0.00014135       0.00008094       0.00000000
Nb      29.26015167      66.86846041       2.34821781  F       0.00110939       0.00011775       0.00000000
Nb      30.91281514      66.87023796       0.00000000  F       0.00052481      -0.00031921      -0.00000000
Nb      29.22000537      69.22889469      -0.00000000  F       0.00058871       0.00000647       0.00000000
Nb      30.87112668      69.22930317       2.34821781  F       0.00010380      -0.00018318       0.00000000
Nb      29.20095056      71.59087186       2.34821781  T       0.00000000       0.00000000       0.00000000
Nb      30.84589761      71.58963468      -0.00000000  F       0.00017812       0.00081865       0.00000000
Nb      29.18123028      73.94660385       0.00000000  T       0.00000000       0.00000000       0.00000000
Nb      30.82734229      73.95034549       2.34821781  F       0.00071121       0.00019110       0.00000000
Nb      29.16591769      76.30148419       2.34821781  T       0.00000000       0.00000000       0.00000000
Nb      30.82024020      76.30599168      -0.00000000  T       0.00000000       0.00000000       0.00000000
Nb      29.15370720      78.65567040       0.00000000  T       0.00000000       0.00000000       0.00000000
Nb      30.80863407      78.66019183       2.34821781  T       0.00000000       0.00000000       0.00000000
Nb      29.14375693      81.00928212       2.34821781  T       0.00000000       0.00000000       0.00000000
Nb      30.79918581      81.01380913      -0.00000000  T       0.00000000       0.00000000       0.00000000
Nb      29.13550165      83.36241140       0.00000000  T       0.00000000       0.00000000       0.00000000
Nb      30.79135344      83.36693790       2.34821781  T       0.00000000       0.00000000       0.00000000
Nb      29.12854866      85.71513022       2.34821781  T       0.00000000       0.00000000       0.00000000
Nb      30.78476125      85.71965156      -0.00000000  T       0.00000000       0.00000000       0.00000000
Nb      29.12261709      88.06749566       0.00000000  T       0.00000000       0.00000000       0.00000000
Nb      30.77914093      88.07200818       2.34821781  T       0.00000000       0.00000000       0.00000000
Nb      30.66169695      22.32537026       0.00000000  T       0.00000000       0.00000000       0.00000000
Nb      32.32578330      22.33010574       2.34821781  T       0.00000000       0.00000000       0.00000000
Nb      30.65681733      24.66974040       2.34821781  T       0.00000000       0.00000000       0.00000000
Nb      32.32117605      24.67449002      -0.00000000  T       0.00000000       0.00000000       0.00000000
Nb      30.65115680      27.01379860       0.00000000  T       0.00000000       0.00000000       0.00000000
Nb      32.31582809      27.01855904       2.34821781  T       0.00000000       0.00000000       0.00000000
Nb      30.64451772      29.35749807       2.34821781  T       0.00000000       0.00000000       0.00000000
Nb      32.30955128      29.36226532      -0.00000000  T       0.00000000       0.00000000       0.00000000
Nb      30.63663054      31.70078060       0.00000000  T       0.00000000       0.00000000       0.00000000
Nb      32.30208869      31.70554964       2.34821781  T       0.00000000       0.00000000       0.00000000
Nb      30.62711822      34.04357268       2.34821781  T       0.00000000       0.00000000       0.00000000
Nb      32.29252336      34.04330410      -0.00000000  F      -0.00037939       0.00090911       0.00000000
Nb      30.61618119      36.37977851      -0.00000000  F      -0.00055784       0.00056848      -0.00000000
Nb      32.28718274      36.38268595       2.34821781  F      -0.00067136       0.00012672       0.00000000
Nb      30.60662669      38.71757942       2.34821781  F      -0.00069689      -0.00048940       0.00000000
Nb      32.27881454      38.71893465      -0.00000000  F      -0.00018436      -0.00040606       0.00000000
Nb      30.59062536      41.05201966      -0.00000000  F       0.00006409      -0.00053379      -0.00000000
Nb      32.26314516      41.05444717       2.34821781  F      -0.00055702      -0.00013979       0.00000000
Nb      30.56035462      43.38714561       2.34821781  F      -0.00080883       0.00037502       0.00000000
Nb      32.23113011      43.39015444       0.00000000  F      -0.00100674       0.00066585      -0.00000000
Nb      30.50479396      45.72429736      -0.00000000  F      -0.00035704       0.00072779       0.00000000
Nb      32.17196313      45.72814430       2.34821781  F      -0.00077416       0.00034619       0.00000000
Nb      30.41790762      48.06614974       2.34821781  F       0.00029382       0.00028072      -0.00000000
Nb      32.07917290      48.06987533      -0.00000000  F       0.00042847       0.00012121       0.00000000
Nb      30.29710731      50.41437332      -0.00000000  F      -0.00027683      -0.00046744       0.00000000
Nb      31.95260960      50.41667147       2.34821781  F      -0.00079956       0.00013527      -0.00000000
Nb      30.14363768      52.76712454       2.34821781  F       0.00012584      -0.00010931       0.00000000
Nb      31.79530329      52.76816443       0.00000000  F       0.00059866      -0.00046927      -0.00000000
Nb      29.96326632      55.12121090       0.00000000  F      -0.00025059      -0.00094648      -0.00000000
Nb      31.61560778      55.12117488       2.34821781  F      -0.00083517      -0.00111146       0.00000000
Nb      33.08144694      57.46939490       2.34821781  F      -0.00010990       0.00020456       0.00000000
Nb      34.73680764      57.46490228       0.00000000  F      -0.00027414       0.00003040      -0.00000000
Nb      32.90310867      59.81842190       0.00000000  F      -0.00006675      -0.00008766       0.00000000
Nb      34.56042369      59.81524495       2.34821781  F      -0.00079178       0.00007453       0.00000000
Nb      32.75172146      62.16635349       2.34821781  F       0.00046682      -0.00025124      -0.00000000
Nb      34.40940767      62.16547996      -0.00000000  F      -0.00032151       0.00040159       0.00000000
Nb      32.63914476      64.51670903       0.00000000  F       0.00022848      -0.00012285       0.00000000
Nb      34.29487539      64.51765748       2.34821781  F      -0.00000401       0.00061273      -0.00000000
Nb      32.56551012      66.87205775       2.34821781  F       0.00105958      -0.00043862       0.00000000
Nb      34.21831875      66.87344277       0.00000000  F       0.00053413       0.00011004      -0.00000000
Nb      32.52204397      69.23091367       0.00000000  F      -0.00006470      -0.00079042      -0.00000000
Nb      34.17247246      69.23242999       2.34821781  F       0.00043731      -0.00030251       0.00000000
Nb      32.49592460      71.59146562       2.34821781  F      -0.00004722      -0.00023854       0.00000000
Nb      34.14600336      71.59305241       0.00000000  F      -0.00030698      -0.00101748      -0.00000000
Nb      32.47929972      73.95091581       0.00000000  F       0.00022608       0.00070992       0.00000000
Nb      34.13003261      73.95313701       2.34821781  F       0.00040867       0.00023632      -0.00000000
Nb      32.46713645      76.31003650       2.34821781  F      -0.00001050       0.00008958       0.00000000
Nb      34.11958575      76.31176448       0.00000000  F       0.00020005       0.00018722       0.00000000
Nb      32.46354583      78.66497683       0.00000000  T       0.00000000       0.00000000       0.00000000
Nb      34.11233431      78.67072624       2.34821781  F      -0.00015794      -0.00014675       0.00000000
Nb      32.45460556      81.01859615       2.34821781  T       0.00000000       0.00000000       0.00000000
Nb      34.11001831      81.02367235      -0.00000000  T       0.00000000       0.00000000       0.00000000
Nb      32.44720042      83.37172087       0.00000000  T       0.00000000       0.00000000       0.00000000
Nb      34.10304461      83.37678878       2.34821781  T       0.00000000       0.00000000       0.00000000
Nb      32.44097225      85.72442579       2.34821781  T       0.00000000       0.00000000       0.00000000
Nb      34.09718365      85.72948065      -0.00000000  T       0.00000000       0.00000000       0.00000000
Nb      32.43566568      88.07676993       0.00000000  T       0.00000000       0.00000000       0.00000000
Nb      34.09219330      88.08180788       2.34821781  T       0.00000000       0.00000000       0.00000000
Nb      32.43109386      90.42880057       2.34821781  T       0.00000000       0.00000000       0.00000000
Nb      34.08789663      90.43381837      -0.00000000  T       0.00000000       0.00000000       0.00000000
Nb      33.99363214      19.99043036       2.34821781  T       0.00000000       0.00000000       0.00000000
Nb      35.65746594      19.99571222      -0.00000000  T       0.00000000       0.00000000       0.00000000
Nb      33.98986604      22.33511283       0.00000000  T       0.00000000       0.00000000       0.00000000
Nb      35.65394288      22.34042195       2.34821781  T       0.00000000       0.00000000       0.00000000
Nb      33.98553333      24.67951570       2.34821781  T       0.00000000       0.00000000       0.00000000
Nb      35.64988691      24.68484892      -0.00000000  T       0.00000000       0.00000000       0.00000000
Nb      33.98050063      27.02359985       0.00000000  T       0.00000000       0.00000000       0.00000000
Nb      35.64517220      27.02895351       2.34821781  T       0.00000000       0.00000000       0.00000000
Nb      33.97458955      29.36731711       2.34821781  T       0.00000000       0.00000000       0.00000000
Nb      35.63963029      29.37268687      -0.00000000  T       0.00000000       0.00000000       0.00000000
Nb      33.96755612      31.71060728       0.00000000  T       0.00000000       0.00000000       0.00000000
Nb      35.63403910      31.71071146       2.34821781  F      -0.00022664       0.00038281       0.00000000
Nb      33.96211132      34.04707694       2.34821781  F      -0.00035878       0.00107206       0.00000000
Nb      35.63146014      34.05147896       0.00000000  F      -0.00031710       0.00042632       0.00000000
Nb      33.95758205      36.38568392      -0.00000000  F      -0.00031621      -0.00032169       0.00000000
Nb      35.62771634      36.38976340       2.34821781  F      -0.00049959      -0.00107662      -0.00000000
Nb      33.95049899      38.72251635       2.34821781  F      -0.00020626      -0.00019310       0.00000000
Nb      35.62178278      38.72728336       0.00000000  F      -0.00017529      -0.00021705       0.00000000
Nb      33.93527342      41.05867906       0.00000000  F      -0.00031826      -0.00009409      -0.00000000
Nb      35.60708005      41.06393303       2.34821781  F      -0.00051279       0.00001333      -0.00000000
Nb      33.90190167      43.39485079       2.34821781  F      -0.00068989       0.00074394       0.00000000
Nb      35.57306788      43.40031675       0.00000000  F      -0.00057932       0.00064724      -0.00000000