1216
Lattice="119.41295399346626 0.0 0.0 0.0 112.77890099382925 0.0 0.0 0.0 3.3170264998185073" Properties=species:S:1:pos:R:3:fix_mask:L:1:forces:R:3 energy=-12102.742113209531 pbc="T T T"
Nb      16.21661568      43.75265811       1.65851325  T       0.00000000       0.00000000       0.00000000
Nb      16.13396843      47.05853439       1.65851325  T       0.00000000       0.00000000       0.00000000
Nb      14.41515890      48.70863588      -0.00000000  T       0.00000000       0.00000000       0.00000000
Nb      16.02396050      50.36516038       1.65851325  T       0.00000000       0.00000000       0.00000000
Nb      14.29271935      52.01687158      -0.00000000  T       0.00000000       0.00000000       0.00000000
Nb      15.88465082      53.67463464       1.65851325  T       0.00000000       0.00000000       0.00000000
Nb      14.14659290      55.32908069      -0.00000000  T       0.00000000       0.00000000       0.00000000
Nb      19.04152176      56.99399178       1.65851325  T       0.00000000       0.00000000       0.00000000
Nb      17.30308302      58.65153960       0.00000000  T       0.00000000       0.00000000       0.00000000
Nb      18.87842911      60.31555604       1.65851325  T       0.00000000       0.00000000       0.00000000
Nb      17.15751925      61.97546757       0.00000000  T       0.00000000       0.00000000       0.00000000
Nb      18.74512939      63.64199993       1.65851325  T       0.00000000       0.00000000       0.00000000
Nb      17.04309858      65.30263282       0.00000000  T       0.00000000       0.00000000       0.00000000
Nb      18.64532132      66.97033853       1.65851325  T       0.00000000       0.00000000       0.00000000
Nb      18.57230476      70.29873644       1.65851325  T       0.00000000       0.00000000       0.00000000
Nb      19.69391321      33.84071976       1.65851325  T       0.00000000       0.00000000       0.00000000
Nb      19.65955474      37.14834146       1.65851325  T       0.00000000       0.00000000       0.00000000
Nb      17.97079151      38.79729752      -0.00000000  T       0.00000000       0.00000000       0.00000000
Nb      19.61453765      40.45494527       1.65851325  T       0.00000000       0.00000000       0.00000000
Nb      17.91800598      42.10364286      -0.00000000  T       0.00000000       0.00000000       0.00000000
Nb      19.55411273      43.76056994       1.65851325  T       0.00000000       0.00000000       0.00000000
Nb      17.84700796      45.40924988      -0.00000000  T       0.00000000       0.00000000       0.00000000
Nb      19.47146009      47.06557902       1.65851325  T       0.00000000       0.00000000       0.00000000
Nb      17.75071402      48.71481533      -0.00000000  T       0.00000000       0.00000000       0.00000000
Nb      19.35847369      50.37109738       1.65851325  T       0.00000000       0.00000000       0.00000000
Nb      17.62305463      52.02199777      -0.00000000  T       0.00000000       0.00000000       0.00000000
Nb      19.21120842      53.67953135       1.65851325  T       0.00000000       0.00000000       0.00000000
Nb      17.46711043      55.33351007      -0.00000000  T       0.00000000       0.00000000       0.00000000
Nb      22.35560206      56.99892051       1.65851325  T       0.00000000       0.00000000       0.00000000
Nb      20.61107319      58.65650239       0.00000000  T       0.00000000       0.00000000       0.00000000
Nb      22.18026975      60.32123749       1.65851325  T       0.00000000       0.00000000       0.00000000
Nb      20.45678398      61.98143237       0.00000000  T       0.00000000       0.00000000       0.00000000
Nb      22.04114041      63.64891325       1.65851325  T       0.00000000       0.00000000       0.00000000
Nb      20.33915360      65.30971595       0.00000000  T       0.00000000       0.00000000       0.00000000
Nb      21.94030259      66.97831849       1.65851325  T       0.00000000       0.00000000       0.00000000
Nb      20.25384819      68.63868033       0.00000000  T       0.00000000       0.00000000       0.00000000
Nb      21.86838941      70.30746968       1.65851325  T       0.00000000       0.00000000       0.00000000
Nb      20.19194989      71.96708148       0.00000000  T       0.00000000       0.00000000       0.00000000
Nb      21.81620617      73.63565645       1.65851325  T       0.00000000       0.00000000       0.00000000
Nb      20.14609748      75.29451645       0.00000000  T       0.00000000       0.00000000       0.00000000
Nb      21.77729746      76.96273669       1.65851325  T       0.00000000       0.00000000       0.00000000
Nb      23.05273030      30.54237981       1.65851325  T       0.00000000       0.00000000       0.00000000
Nb      21.37444609      32.19151103      -0.00000000  T       0.00000000       0.00000000       0.00000000
Nb      23.02745162      33.85079214       1.65851325  T       0.00000000       0.00000000       0.00000000
Nb      21.34497608      35.49951541      -0.00000000  T       0.00000000       0.00000000       0.00000000
Nb      22.99486712      37.15816346       1.65851325  T       0.00000000       0.00000000       0.00000000
Nb      21.30666135      38.80647303      -0.00000000  T       0.00000000       0.00000000       0.00000000
Nb      22.95173092      40.46436924       1.65851325  T       0.00000000       0.00000000       0.00000000
Nb      21.25552815      42.11231993      -0.00000000  T       0.00000000       0.00000000       0.00000000
Nb      22.89296595      43.76937469       1.65851325  T       0.00000000       0.00000000       0.00000000
Nb      21.18553778      45.41717889      -0.00000000  T       0.00000000       0.00000000       0.00000000
Nb      22.81083999      47.07345372       1.65851325  T       0.00000000       0.00000000       0.00000000
Nb      21.08825383      48.72169144      -0.00000000  T       0.00000000       0.00000000       0.00000000
Nb      22.69519752      50.37771327       1.65851325  T       0.00000000       0.00000000       0.00000000
Nb      20.95525083      52.02764116      -0.00000000  T       0.00000000       0.00000000       0.00000000
Nb      22.53927777      53.68489046       1.65851325  T       0.00000000       0.00000000       0.00000000
Nb      20.78817790      55.33829736      -0.00000000  T       0.00000000       0.00000000       0.00000000
Nb      25.66910789      57.00429331       1.65851325  T       0.00000000       0.00000000       0.00000000
Nb      23.91752457      58.66193530       0.00000000  T       0.00000000       0.00000000       0.00000000
Nb      25.47972151      60.32755889       1.65851325  T       0.00000000       0.00000000       0.00000000
Nb      23.75370058      61.98808543       0.00000000  T       0.00000000       0.00000000       0.00000000
Nb      25.33476133      63.65668889       1.65851325  T       0.00000000       0.00000000       0.00000000
Nb      23.63322324      65.31764271       0.00000000  T       0.00000000       0.00000000       0.00000000
Nb      25.23353855      66.98726631       1.65851325  T       0.00000000       0.00000000       0.00000000
Nb      23.54852546      68.64754631       0.00000000  T       0.00000000       0.00000000       0.00000000
Nb      25.16330810      70.31719796       1.65851325  T       0.00000000       0.00000000       0.00000000
Nb      23.48840964      71.97656652       0.00000000  T       0.00000000       0.00000000       0.00000000
Nb      25.11327929      73.64587509       1.65851325  T       0.00000000       0.00000000       0.00000000
Nb      23.44454044      75.30439493       0.00000000  T       0.00000000       0.00000000       0.00000000
Nb      25.07643742      76.97325572       1.65851325  T       0.00000000       0.00000000       0.00000000
Nb      23.41154094      78.63105824       0.00000000  T       0.00000000       0.00000000       0.00000000
Nb      25.04844417      80.29946596       1.65851325  T       0.00000000       0.00000000       0.00000000
Nb      25.02658797      83.62466216       1.65851325  T       0.00000000       0.00000000       0.00000000
Nb      26.40358626      27.24434317       1.65851325  T       0.00000000       0.00000000       0.00000000
Nb      24.72903241      28.89332322      -0.00000000  T       0.00000000       0.00000000       0.00000000
Nb      26.38497227      30.55360584       1.65851325  T       0.00000000       0.00000000       0.00000000
Nb      24.70734316      32.20215729      -0.00000000  T       0.00000000       0.00000000       0.00000000
Nb      26.36140259      33.86189417       1.65851325  T       0.00000000       0.00000000       0.00000000
Nb      24.67963382      35.50997757      -0.00000000  T       0.00000000       0.00000000       0.00000000
Nb      26.33079614      37.16903939       1.65851325  T       0.00000000       0.00000000       0.00000000
Nb      24.64329318      38.81662796      -0.00000000  T       0.00000000       0.00000000       0.00000000
Nb      26.28985730      40.47486343       1.65851325  T       0.00000000       0.00000000       0.00000000
Nb      24.59418921      42.12197992      -0.00000000  T       0.00000000       0.00000000       0.00000000
Nb      26.24893037      43.77843153       1.65851325  F      -0.00003437       0.00029875      -0.00000000
Nb      24.52574319      45.42606067      -0.00000000  T       0.00000000       0.00000000       0.00000000
Nb      26.17225464      47.07363166       1.65851325  F       0.00031457       0.00116039       0.00000000
Nb      24.43923270      48.72445918       0.00000000  F       0.00012572       0.00050033      -0.00000000
Nb      26.04297467      50.37393991       1.65851325  F       0.00026719      -0.00049366      -0.00000000
Nb      24.29063530      52.02921516      -0.00000000  F       0.00033596      -0.00030025       0.00000000
Nb      25.86522267      53.68337317       1.65851325  F      -0.00021506      -0.00076775      -0.00000000
Nb      24.10944663      55.34286021      -0.00000000  F       0.00035973       0.00006278       0.00000000
Nb      28.97750194      56.99512568       1.65851325  F      -0.00070455       0.00068009       0.00000000
Nb      27.22152152      58.66059419       0.00000000  F      -0.00032900       0.00116057      -0.00000000
Nb      28.77359129      60.32012338       1.65851325  F      -0.00023490       0.00062441      -0.00000000
Nb      27.04340676      61.98892158      -0.00000000  F      -0.00100097       0.00010958       0.00000000
Nb      28.61394475      63.65337446       1.65851325  F      -0.00034530       0.00006538      -0.00000000
Nb      26.92511113      65.32659447       0.00000000  T       0.00000000       0.00000000       0.00000000
Nb      28.51350098      66.99276134       1.65851325  F       0.00023834       0.00036603      -0.00000000
Nb      26.84174290      68.65749283       0.00000000  T       0.00000000       0.00000000       0.00000000
Nb      28.45704651      70.32811263       1.65851325  T       0.00000000       0.00000000       0.00000000
Nb      26.78392438      71.98713297       0.00000000  T       0.00000000       0.00000000       0.00000000
Nb      28.40960129      73.65726213       1.65851325  T       0.00000000       0.00000000       0.00000000
Nb      26.74236777      75.31533534       0.00000000  T       0.00000000       0.00000000       0.00000000
Nb      28.37509230      76.98491392       1.65851325  T       0.00000000       0.00000000       0.00000000
Nb      26.71142679      78.64221647       0.00000000  T       0.00000000       0.00000000       0.00000000
Nb      28.34909360      80.31126822       1.65851325  T       0.00000000       0.00000000       0.00000000
Nb      26.68766831      81.96795440       0.00000000  T       0.00000000       0.00000000       0.00000000
Nb      28.32891911      83.63652470       1.65851325  T       0.00000000       0.00000000       0.00000000
Nb      26.66894435      85.29271853       0.00000000  T       0.00000000       0.00000000       0.00000000
Nb      28.31287549      86.96085376       1.65851325  T       0.00000000       0.00000000       0.00000000
Nb      29.74823400      23.94663370       1.65851325  T       0.00000000       0.00000000       0.00000000
Nb      28.07659500      25.59544454      -0.00000000  T       0.00000000       0.00000000       0.00000000
Nb      29.73452828      27.25676260       1.65851325  T       0.00000000       0.00000000       0.00000000
Nb      28.06061981      28.90513915      -0.00000000  T       0.00000000       0.00000000       0.00000000
Nb      29.71746422      30.56601013       1.65851325  T       0.00000000       0.00000000       0.00000000
Nb      28.04056567      32.21390490      -0.00000000  T       0.00000000       0.00000000       0.00000000
Nb      29.69573802      33.87421207       1.65851325  T       0.00000000       0.00000000       0.00000000
Nb      28.01478300      35.52157194      -0.00000000  T       0.00000000       0.00000000       0.00000000
Nb      29.66767893      37.18409355       1.65851325  F      -0.00058716      -0.00069062       0.00000000
Nb      27.98067518      38.82794133      -0.00000000  T       0.00000000       0.00000000       0.00000000
Nb      29.63958009      40.48743701       1.65851325  F      -0.00050479       0.00047941      -0.00000000
Nb      27.95092257      42.13202686      -0.00000000  F      -0.00018288       0.00049645       0.00000000
Nb      29.61123916      43.78470314       1.65851325  F      -0.00070578       0.00064369      -0.00000000
Nb      27.89894584      45.42785078      -0.00000000  F      -0.00034619       0.00077609       0.00000000
Nb      29.53464177      47.07683233       1.65851325  F       0.00046872       0.00037898      -0.00000000
Nb      27.79186180      48.72277884       0.00000000  F      -0.00030413      -0.00037221       0.00000000
Nb      29.38750265      50.37329268       1.65851325  F      -0.00023009       0.00048689      -0.00000000
Nb      27.62520200      52.02565716       0.00000000  F      -0.00086445      -0.00035491       0.00000000
Nb      29.19064437      53.67939962       1.65851325  F      -0.00002503      -0.00001281      -0.00000000
Nb      27.42566700      55.33885244      -0.00000000  F      -0.00041919       0.00079348       0.00000000
Nb      32.28710344      56.99400148       1.65851325  F       0.00041160       0.00103698       0.00000000
Nb      30.52317068      58.65495538      -0.00000000  F       0.00040163       0.00077712       0.00000000
Nb      32.06600562      60.31967413       1.65851325  F       0.00011482      -0.00004469       0.00000000
Nb      30.32838790      61.98456243      -0.00000000  F       0.00084919       0.00106058       0.00000000
Nb      31.88976167      63.65483750       1.65851325  F      -0.00010757       0.00029931       0.00000000
Nb      30.19306456      65.32251223       0.00000000  F      -0.00012153       0.00131409      -0.00000000
Nb      31.78595948      66.99617414       1.65851325  F       0.00077685       0.00090740      -0.00000000
Nb      30.11943058      68.66260603      -0.00000000  F      -0.00009646       0.00064525       0.00000000
Nb      31.73925669      70.33484737       1.65851325  F       0.00011643      -0.00008791       0.00000000
Nb      30.07872341      71.99664816      -0.00000000  F      -0.00013598       0.00000037       0.00000000
Nb      31.70700405      73.66720715       1.65851325  F      -0.00024390      -0.00057577       0.00000000
Nb      30.03960874      75.32753497       0.00000000  T       0.00000000       0.00000000       0.00000000
Nb      31.67329906      76.99792841       1.65851325  T       0.00000000       0.00000000       0.00000000
Nb      30.01093812      78.65459641       0.00000000  T       0.00000000       0.00000000       0.00000000
Nb      31.64946258      80.32438106       1.65851325  T       0.00000000       0.00000000       0.00000000
Nb      29.98907930      81.98041107       0.00000000  T       0.00000000       0.00000000       0.00000000
Nb      31.63107810      83.64965071       1.65851325  T       0.00000000       0.00000000       0.00000000
Nb      29.97194375      85.30518212       0.00000000  T       0.00000000       0.00000000       0.00000000
Nb      31.61652652      86.97393393       1.65851325  T       0.00000000       0.00000000       0.00000000
Nb      29.95819963      88.62907410       0.00000000  T       0.00000000       0.00000000       0.00000000
Nb      31.60476113      90.29738583       1.65851325  T       0.00000000       0.00000000       0.00000000
Nb      33.08798382      20.64929935       1.65851325  T       0.00000000       0.00000000       0.00000000
Nb      31.41865394      22.29791700      -0.00000000  T       0.00000000       0.00000000       0.00000000
Nb      33.07792860      23.96030945       1.65851325  T       0.00000000       0.00000000       0.00000000
Nb      31.40690550      25.60848355      -0.00000000  T       0.00000000       0.00000000       0.00000000
Nb      33.06559441      27.27053026       1.65851325  T       0.00000000       0.00000000       0.00000000
Nb      31.39239088      28.91821572      -0.00000000  T       0.00000000       0.00000000       0.00000000
Nb      33.05016909      30.57981724       1.65851325  T       0.00000000       0.00000000       0.00000000
Nb      31.37408089      32.22695842      -0.00000000  T       0.00000000       0.00000000       0.00000000
Nb      33.02965111      33.89027941       1.65851325  F       0.00004700      -0.00065228       0.00000000
Nb      31.34949042      35.53730083       0.00000000  F      -0.00041016       0.00050509      -0.00000000
Nb      33.00110698      37.19657290       1.65851325  F       0.00018737      -0.00015003       0.00000000
Nb      31.32187816      38.84299540       0.00000000  F      -0.00066402       0.00009509      -0.00000000
Nb      32.98725588      40.49925336       1.65851325  F      -0.00105149      -0.00017326      -0.00000000
Nb      31.30629140      42.14255522       0.00000000  F      -0.00050061      -0.00014109       0.00000000
Nb      32.97330162      43.79487280       1.65851325  F      -0.00092317       0.00035401       0.00000000
Nb      31.26470593      45.43546610       0.00000000  F      -0.00027259      -0.00030055      -0.00000000
Nb      32.89763518      47.08523715       1.65851325  F      -0.00073821       0.00034665       0.00000000
Nb      31.14730354      48.72690237       0.00000000  F      -0.00061100       0.00036863      -0.00000000
Nb      32.73410641      50.37762703       1.65851325  F      -0.00005190       0.00076420       0.00000000
Nb      30.96115590      52.02578323       0.00000000  F      -0.00037122      -0.00007991      -0.00000000
Nb      32.51819734      53.67984458       1.65851325  F       0.00090347       0.00108926       0.00000000
Nb      30.74372157      55.33513970      -0.00000000  F      -0.00063320       0.00017600      -0.00000000
Nb      35.59639598      56.99152525       1.65851325  F       0.00061784       0.00007469      -0.00000000
Nb      33.82335303      58.65626172      -0.00000000  F      -0.00022471       0.00026405      -0.00000000
Nb      35.35521595      60.32174084       1.65851325  F       0.00060958      -0.00038976       0.00000000
Nb      33.61055577      61.98937522      -0.00000000  F      -0.00005900       0.00027922       0.00000000
Nb      35.16339256      63.66327185       1.65851325  F      -0.00020871      -0.00148743      -0.00000000
Nb      33.46372840      65.33047162      -0.00000000  F       0.00036987       0.00019069       0.00000000
Nb      35.05867141      67.00770863       1.65851325  F      -0.00006057      -0.00118924      -0.00000000
Nb      33.39674709      68.67185311       0.00000000  F       0.00047188       0.00067046      -0.00000000
Nb      35.02333948      70.34737704       1.65851325  F       0.00028542       0.00026245      -0.00000000
Nb      33.36809205      72.00808541      -0.00000000  F       0.00030701       0.00093520      -0.00000000
Nb      35.00105031      73.68142674       1.65851325  F       0.00060803      -0.00011408      -0.00000000
Nb      33.33881068      75.33889313      -0.00000000  F      -0.00038243       0.00054314       0.00000000
Nb      34.97296984      77.01119717       1.65851325  F       0.00009402      -0.00066223       0.00000000
Nb      33.31011756      78.66843753       0.00000000  T       0.00000000       0.00000000       0.00000000
Nb      34.94959884      80.33906848       1.65851325  T       0.00000000       0.00000000       0.00000000
Nb      33.29029112      81.99427393       0.00000000  T       0.00000000       0.00000000       0.00000000
Nb      34.93310993      83.66428489       1.65851325  T       0.00000000       0.00000000       0.00000000
Nb      33.27483132      85.31899560       0.00000000  T       0.00000000       0.00000000       0.00000000
Nb      34.92012135      86.98845430       1.65851325  T       0.00000000       0.00000000       0.00000000
Nb      33.26248423      88.64278742       0.00000000  T       0.00000000       0.00000000       0.00000000
Nb      34.90966189      90.31174793       1.65851325  T       0.00000000       0.00000000       0.00000000
Nb      33.25242715      91.96579365       0.00000000  T       0.00000000       0.00000000       0.00000000
Nb      36.42379686      17.35236286       1.65851325  T       0.00000000       0.00000000       0.00000000
Nb      34.75633363      19.00078247      -0.00000000  T       0.00000000       0.00000000       0.00000000
Nb      36.41649050      20.66429426       1.65851325  T       0.00000000       0.00000000       0.00000000
Nb      34.74774790      22.31224587      -0.00000000  T       0.00000000       0.00000000       0.00000000
Nb      36.40763917      23.97551881       1.65851325  T       0.00000000       0.00000000       0.00000000
Nb      34.73728495      25.62296250      -0.00000000  T       0.00000000       0.00000000       0.00000000
Nb      36.39673690      27.28591289       1.65851325  T       0.00000000       0.00000000       0.00000000
Nb      34.72430379      28.93279859      -0.00000000  T       0.00000000       0.00000000       0.00000000
Nb      36.38440790      30.59700116       1.65851325  F      -0.00023015      -0.00133504       0.00000000
Nb      34.70808118      32.24333584      -0.00000000  F       0.00068836      -0.00029048       0.00000000
Nb      36.35992787      33.90276640       1.65851325  F       0.00126534       0.00000921      -0.00000000
Nb      34.68030309      35.54964384       0.00000000  F       0.00060239      -0.00051008       0.00000000
Nb      36.33588785      37.20762184       1.65851325  F       0.00077917       0.00025775      -0.00000000
Nb      34.66171847      38.85418073       0.00000000  F      -0.00091861      -0.00061901       0.00000000
Nb      36.33273641      40.50863223       1.65851325  F      -0.00222858       0.00025434      -0.00000000
Nb      34.66013610      42.15292249       0.00000000  F      -0.00141746       0.00084567       0.00000000
Nb      36.33147531      43.80357315       1.65851325  F       0.00000543      -0.00008793       0.00000000
Nb      34.62791906      45.44494072       0.00000000  F       0.00006919       0.00092651      -0.00000000
Nb      36.25976925      47.09164822       1.65851325  F      -0.00098749      -0.00016539       0.00000000
Nb      34.50384543      48.73363222       0.00000000  F      -0.00106208       0.00061695      -0.00000000
Nb      36.08397630      50.37940899       1.65851325  F      -0.00039432      -0.00070261      -0.00000000
Nb      34.29959282      52.02832131       0.00000000  F      -0.00018942      -0.00032444      -0.00000000
Nb      35.84857479      53.67740967       1.65851325  F      -0.00007013      -0.00002856       0.00000000
Nb      34.06280222      55.33532599       0.00000000  F      -0.00051346      -0.00003597      -0.00000000
Nb      38.90510650      56.97152730       1.65851325  F       0.00053536       0.00032244      -0.00000000
Nb      37.12071094      58.64894627       0.00000000  F       0.00062984      -0.00149303       0.00000000
Nb      38.63912846      60.30815731       1.65851325  F       0.00059083      -0.00019340      -0.00000000
Nb      36.88850396      61.98975234      -0.00000000  F       0.00028366      -0.00098438       0.00000000
Nb      38.43368896      63.65846243       1.65851325  F      -0.00001613      -0.00080627      -0.00000000
Nb      36.73485136      65.33769122      -0.00000000  F       0.00015083      -0.00086409       0.00000000
Nb      38.33325524      67.00851380       1.65851325  F       0.00043683      -0.00171611      -0.00000000
Nb      36.67598409      68.68245431      -0.00000000  F       0.00066043      -0.00106666       0.00000000
Nb      38.30919190      70.35128167       1.65851325  F       0.00132259      -0.00149575       0.00000000
Nb      36.65820543      72.02033320       0.00000000  F       0.00128908      -0.00089153       0.00000000
Nb      38.29536819      73.68802816       1.65851325  F       0.00070046       0.00016115      -0.00000000
Nb      36.63566760      75.35301478       0.00000000  F       0.00124247      -0.00005250       0.00000000
Nb      38.27159655      77.02114302       1.65851325  F       0.00034534       0.00013541      -0.00000000
Nb      36.61043844      78.68233151       0.00000000  F      -0.00128052       0.00086204       0.00000000
Nb      38.25048602      80.35209969       1.65851325  F      -0.00113829      -0.00107409      -0.00000000
Nb      36.59135717      82.00983290       0.00000000  T       0.00000000       0.00000000       0.00000000
Nb      38.23507519      83.68074297       1.65851325  T       0.00000000       0.00000000       0.00000000
Nb      36.57765777      85.33442412       0.00000000  T       0.00000000       0.00000000       0.00000000
Nb      38.22371818      87.00469848       1.65851325  T       0.00000000       0.00000000       0.00000000
Nb      36.56676588      88.65803288       0.00000000  T       0.00000000       0.00000000       0.00000000
Nb      38.21461277      90.32773183       1.65851325  T       0.00000000       0.00000000       0.00000000
Nb      36.55792885      91.98081660       0.00000000  T       0.00000000       0.00000000       0.00000000
Nb      38.20717538      93.64998756       1.65851325  T       0.00000000       0.00000000       0.00000000
Nb      39.75115603      17.36869483       1.65851325  T       0.00000000       0.00000000       0.00000000
Nb      38.08426336      19.01644921      -0.00000000  T       0.00000000       0.00000000       0.00000000
Nb      39.74490540      20.68099812       1.65851325  T       0.00000000       0.00000000       0.00000000
Nb      38.07680494      22.32820012      -0.00000000  T       0.00000000       0.00000000       0.00000000
Nb      39.73730038      23.99256207       1.65851325  T       0.00000000       0.00000000       0.00000000
Nb      38.06767796      25.63916740      -0.00000000  T       0.00000000       0.00000000       0.00000000
Nb      39.72869258      27.30328850       1.65851325  F       0.00118930       0.00034225       0.00000000
Nb      38.05769526      28.95017350       0.00000000  F       0.00084575      -0.00008498      -0.00000000
Nb      39.71493253      30.60744855       1.65851325  F       0.00070391       0.00107657      -0.00000000
Nb      38.03885293      32.25576825       0.00000000  F      -0.00018872      -0.00066731      -0.00000000
Nb      39.69267900      33.91025815       1.65851325  F       0.00125716       0.00057004       0.00000000
Nb      38.01324047      35.56012338       0.00000000  F       0.00111238      -0.00111465      -0.00000000
Nb      39.67250166      37.21081118       1.65851325  F      -0.00017653      -0.00032336      -0.00000000
Nb      38.00094713      38.86137182      -0.00000000  F      -0.00107464       0.00023847       0.00000000
Nb      39.67617635      40.50839061       1.65851325  F      -0.00007255      -0.00080329       0.00000000
Nb      38.01043555      42.15856508      -0.00000000  F      -0.00017044      -0.00027541      -0.00000000
Nb      39.68670020      43.80102694       1.65851325  F      -0.00012759      -0.00016677      -0.00000000
Nb      37.98953550      45.44866958       0.00000000  F      -0.00039479       0.00004562       0.00000000
Nb      39.62363920      47.08603375       1.65851325  F      -0.00004809      -0.00075757       0.00000000
Nb      37.86333636      48.73260316       0.00000000  F      -0.00047714      -0.00024896      -0.00000000
Nb      39.44077271      50.36662840       1.65851325  F      -0.00056469      -0.00019061      -0.00000000
Nb      37.64288582      52.02064217       0.00000000  F       0.00014548       0.00018064      -0.00000000
Nb      39.18410719      53.65804696       1.65851325  F       0.00013921       0.00015207      -0.00000000
Nb      37.38350850      55.32471706       0.00000000  F       0.00056718      -0.00079364       0.00000000
Nb      42.21370383      56.93469198       1.65851325  F       0.00096084      -0.00013164      -0.00000000
Nb      40.41412059      58.62105627       0.00000000  F       0.00069883      -0.00032139      -0.00000000
Nb      41.91581289      60.27537436       1.65851325  F      -0.00012014      -0.00090499      -0.00000000
Nb      40.16003598      61.96978837       0.00000000  F       0.00034850      -0.00113247       0.00000000
Nb      41.69979319      63.63075443       1.65851325  F      -0.00037476      -0.00077608       0.00000000
Nb      40.00488250      65.32388765       0.00000000  F       0.00048970      -0.00068136       0.00000000
Nb      41.61011780      66.98107275       1.65851325  F       0.00082989      -0.00014512      -0.00000000
Nb      39.95747178      68.67103006      -0.00000000  F       0.00049810       0.00017165       0.00000000
Nb      41.59643001      70.32432833       1.65851325  F       0.00141098      -0.00009666      -0.00000000
Nb      39.94881483      72.01208910      -0.00000000  F       0.00100843      -0.00001293      -0.00000000