507
Lattice="93.31713301526463 0.0 0.0 0.0 80.81500779955073 0.0 0.0 0.0 2.7493823981658614" Properties=species:S:1:pos:R:3:fix_mask:L:1:forces:R:3 energy=-6438.051959466197 pbc="T T T"
W       20.72765399      28.43499706      -0.27657522  T       0.00000000       0.00000000       0.00000000
W       19.43281632      30.67969623       0.60241153  T       0.00000000       0.00000000       0.00000000
W       18.13838697      32.92453189      -1.26679725  T       0.00000000       0.00000000       0.00000000
W       20.73004558      32.92453016      -0.34050602  T       0.00000000       0.00000000       0.00000000
W       19.43598880      35.16941955       0.53797236  T       0.00000000       0.00000000       0.00000000
W       18.14210620      37.41432770      -1.33075890  T       0.00000000       0.00000000       0.00000000
W       20.73398340      37.41432271      -0.41013022  T       0.00000000       0.00000000       0.00000000
W       16.84822239      39.65921506      -0.44767139  T       0.00000000       0.00000000       0.00000000
W       19.44030084      39.65921473       0.46975264  T       0.00000000       0.00000000       0.00000000
W       18.14646345      41.90407071       1.35266495  T       0.00000000       0.00000000       0.00000000
W       20.73874479      41.90406926       2.26702291  T       0.00000000       0.00000000       0.00000000
W       19.44480341      44.14889491       3.15031933  T       0.00000000       0.00000000       0.00000000
W       18.15049161      46.39371737       1.28769702  T       0.00000000       0.00000000       0.00000000
W       20.74307845      46.39370897       2.19609038  T       0.00000000       0.00000000       0.00000000
W       19.44842889      48.63856084       3.08427330  T       0.00000000       0.00000000       0.00000000
W       20.74601531      50.88350044       2.12994696  T       0.00000000       0.00000000       0.00000000
W       20.74736698      55.37372337       2.07075569  T       0.00000000       0.00000000       0.00000000
W       25.91194507      19.45891579      -1.04186633  T       0.00000000       0.00000000       0.00000000
W       28.50477238      19.46009322      -0.09800420  T       0.00000000       0.00000000       0.00000000
W       24.61521453      21.70247033      -0.16228450  T       0.00000000       0.00000000       0.00000000
W       27.20777984      21.70334071       0.77962808  T       0.00000000       0.00000000       0.00000000
W       25.91112632      23.94690004      -1.09363375  T       0.00000000       0.00000000       0.00000000
W       28.50360999      23.94772202      -0.15046258  T       0.00000000       0.00000000       0.00000000
W       23.31886307      23.94633232       0.71632909  T       0.00000000       0.00000000       0.00000000
W       22.02299410      26.19051895      -1.15487804  T       0.00000000       0.00000000       0.00000000
W       24.61496943      26.19083346      -0.21841107  T       0.00000000       0.00000000       0.00000000
W       27.20709627      26.19131732       0.72158472  T       0.00000000       0.00000000       0.00000000
W       25.91123374      28.43536216      -1.15647004  T       0.00000000       0.00000000       0.00000000
W       28.50318230      28.43574024      -0.21620186  T       0.00000000       0.00000000       0.00000000
W       23.31941212      28.43513458       0.65661101  T       0.00000000       0.00000000       0.00000000
W       22.02446644      30.67973452      -1.21723236  T       0.00000000       0.00000000       0.00000000
W       24.61610349      30.67980786      -0.28493818  T       0.00000000       0.00000000       0.00000000
W       27.20775748      30.67994485       0.65067277  T       0.00000000       0.00000000       0.00000000
W       25.91319472      32.92455778      -1.23095995  T       0.00000000       0.00000000       0.00000000
W       28.50314532      32.92407054      -0.29792363  F      -0.00000028      -0.00000019      -0.00000001
W       23.32164810      32.92453597       0.58770113  T       0.00000000       0.00000000       0.00000000
W       22.02768829      35.16941016      -1.28714965  T       0.00000000       0.00000000       0.00000000
W       24.61931286      35.16940069      -0.36122248  T       0.00000000       0.00000000       0.00000000
W       27.21084688      35.16939338       0.56695837  T       0.00000000       0.00000000       0.00000000
W       25.91756472      37.41430816      -1.31533671  T       0.00000000       0.00000000       0.00000000
W       28.50499937      37.41344257      -0.39122689  F       0.00000002       0.00000003      -0.00000011
W       23.32580838      37.41431636       0.51136992  T       0.00000000       0.00000000       0.00000000
W       22.03236642      39.65921430      -1.36201193  T       0.00000000       0.00000000       0.00000000
W       24.62441484      39.65921372      -0.44413510  T       0.00000000       0.00000000       0.00000000
W       27.21360587      39.65871842       0.47429411  F      -0.00000006      -0.00000004       0.00000009
W       25.92340419      41.90406474       1.34486483  T       0.00000000       0.00000000       0.00000000
W       28.51071391      41.90376706       2.25850359  F      -0.00000010      -0.00000035      -0.00000009
W       23.33105502      41.90406734       3.18093631  T       0.00000000       0.00000000       0.00000000
W       22.03729544      44.14888727       1.31171783  T       0.00000000       0.00000000       0.00000000
W       24.62985601      44.14887787       2.22125585  T       0.00000000       0.00000000       0.00000000
W       27.21933843      44.14844122       3.12996927  F      -0.00000005       0.00000029      -0.00000008
W       25.92846431      46.39369849       1.25810050  T       0.00000000       0.00000000       0.00000000
W       28.51839289      46.39358336       2.16129343  F       0.00000002      -0.00000026      -0.00000014
W       23.33573237      46.39370165       3.10286271  T       0.00000000       0.00000000       0.00000000
W       22.04108655      48.63857122       1.23971416  T       0.00000000       0.00000000       0.00000000
W       24.63378868      48.63859927       2.14220210  T       0.00000000       0.00000000       0.00000000
W       27.22652217      48.63866224       3.04161148  T       0.00000000       0.00000000       0.00000000
W       25.93121951      50.88371663       1.17987169  T       0.00000000       0.00000000       0.00000000
W       28.52373892      50.88396300       2.07412553  T       0.00000000       0.00000000       0.00000000
W       23.33862789      50.88357812       3.03110243  T       0.00000000       0.00000000       0.00000000
W       22.04311837      53.12862512       1.17459715  T       0.00000000       0.00000000       0.00000000
W       24.63555850      53.12884572       2.07216794  T       0.00000000       0.00000000       0.00000000
W       27.22788416      53.12920154       2.96619401  T       0.00000000       0.00000000       0.00000000
W       25.93183448      55.37447293       1.11306220  T       0.00000000       0.00000000       0.00000000
W       28.52379687      55.37515160       2.00342910  T       0.00000000       0.00000000       0.00000000
W       23.33966845      55.37402249       2.96818664  T       0.00000000       0.00000000       0.00000000
W       24.63567703      57.61975117       2.01256807  T       0.00000000       0.00000000       0.00000000
W       27.22752316      57.62050213       2.90395248  T       0.00000000       0.00000000       0.00000000
W       25.93123015      59.86581887       1.05772523  T       0.00000000       0.00000000       0.00000000
W       28.52277519      59.86689838       1.94679578  T       0.00000000       0.00000000       0.00000000
W       27.22646072      62.11217687       2.85357580  T       0.00000000       0.00000000       0.00000000
W       33.69236169      14.97592102      -0.91061552  T       0.00000000       0.00000000       0.00000000
W       36.28564153      14.97793665       0.04128044  T       0.00000000       0.00000000       0.00000000
W       31.09913672      14.97406407       0.88979777  T       0.00000000       0.00000000       0.00000000
W       29.80193768      17.21704484      -0.97763170  T       0.00000000       0.00000000       0.00000000
W       32.39512741      17.21879058      -0.02909708  T       0.00000000       0.00000000       0.00000000
W       34.98845203      17.22081734       0.92291526  T       0.00000000       0.00000000       0.00000000
W       33.69110244      19.46349129      -0.94847947  T       0.00000000       0.00000000       0.00000000
W       36.28454656      19.46572160       0.00720445  T       0.00000000       0.00000000       0.00000000
W       31.09782788      19.46160717       0.84946070  T       0.00000000       0.00000000       0.00000000
W       29.80059254      21.70452852      -1.02407198  T       0.00000000       0.00000000       0.00000000
W       32.39368542      21.70611516      -0.07404485  T       0.00000000       0.00000000       0.00000000
W       34.98705691      21.70815815       0.88087079  T       0.00000000       0.00000000       0.00000000
W       33.68950208      23.95055391      -0.99918535  T       0.00000000       0.00000000       0.00000000
W       36.28057951      23.95047521      -0.04334716  F      -0.00000052      -0.00000012       0.00000027
W       31.09638251      23.94890057       0.79720575  T       0.00000000       0.00000000       0.00000000
W       29.79945500      26.19206195      -1.08342678  T       0.00000000       0.00000000       0.00000000
W       32.39214545      26.19320007      -0.13363853  T       0.00000000       0.00000000       0.00000000
W       34.98168098      26.19177072       0.81824842  F      -0.00000013      -0.00000007       0.00000021
W       33.68338833      28.43464204      -1.07321821  F      -0.00000018       0.00000024       0.00000012
W       36.27432639      28.43416688      -0.11793865  F      -0.00000039      -0.00000001       0.00000001
W       31.09381653      28.43544438       0.72744124  F       0.00000007       0.00000004       0.00000015
W       29.79753802      30.67928057      -1.16040109  F      -0.00000020      -0.00000005       0.00000010
W       32.38610200      30.67789213      -0.21728772  F      -0.00000025       0.00000007       0.00000008
W       34.97624836      30.67721626       0.73200609  F      -0.00000009      -0.00000016      -0.00000009
W       33.68004806      32.92135487      -1.16867728  F      -0.00000047       0.00000001       0.00000009
W       36.26936930      32.92014203      -0.21951193  F      -0.00000020       0.00000013       0.00000011
W       31.09089362      32.92237312       0.63884313  F       0.00000020      -0.00000017       0.00000000
W       29.79767559      35.16773301      -1.25245796  F       0.00000004      -0.00000030      -0.00000009
W       32.38606513      35.16661766      -0.31866913  F      -0.00000000       0.00000025       0.00000025
W       34.97447888      35.16528993       0.62043177  F       0.00000013       0.00000011       0.00000020
W       33.68197929      37.41143535      -1.28551291  F       0.00000006       0.00000038       0.00000004
W       36.26980101      37.41001083      -0.35211335  F       0.00000006       0.00000022      -0.00000005
W       31.09358293      37.41248819       0.53487975  F      -0.00000023       0.00000013       0.00000001
W       29.80183615      39.65829354      -1.35580326  F       0.00000023      -0.00000014      -0.00000008
W       32.39080152      39.65774848      -0.43577821  F       0.00000016       0.00000036      -0.00000001
W       34.97920706      39.65705747       0.48516296  F       0.00000004       0.00000007      -0.00000014
W       33.68908313      41.90378440       1.33310865  F      -0.00000007      -0.00000022      -0.00000010
W       36.27773184      41.90399989       2.24180117  F       0.00000066      -0.00000020      -0.00000004
W       31.09989930      41.90373547       3.17126950  F       0.00000010      -0.00000049      -0.00000003
W       29.80867773      44.14918542       1.28786503  F      -0.00000006      -0.00000004       0.00000001
W       32.39844068      44.14982157       2.19232802  F      -0.00000008       0.00000003      -0.00000007
W       34.98790967      44.15092032       3.09231069  F       0.00000015      -0.00000003      -0.00000011
W       33.69707408      46.39677097       1.20737789  F       0.00000006       0.00000001      -0.00000004
W       36.28677331      46.39925208       2.09488944  F      -0.00000026      -0.00000083      -0.00000014
W       31.10719600      46.39516394       3.06159024  F       0.00000003       0.00000009      -0.00000003
W       29.81603814      48.63954622       1.18984619  F      -0.00000024      -0.00000014       0.00000012
W       32.40520059      48.64189935       2.08265777  F       0.00000004       0.00000027       0.00000015
W       34.99519505      48.64447292       2.96841728  F      -0.00000043       0.00000004       0.00000007
W       33.70254503      50.88911861       1.10256746  F       0.00000003      -0.00000018       0.00000018
W       36.29250590      50.89259655       1.98006958  F       0.00000002      -0.00000030       0.00000009
W       31.11343100      50.88607761       2.96616163  F       0.00000002      -0.00000027       0.00000009
W       29.82001294      53.12977759       1.10634969  T       0.00000000       0.00000000       0.00000000
W       32.41016755      53.13262433       1.99333698  F       0.00000007       0.00000019       0.00000002
W       34.99890068      53.13663367       2.87297531  F      -0.00000008      -0.00000003       0.00000017
W       33.70536522      55.38016699       1.02186105  F       0.00000008      -0.00000017       0.00000012
W       36.29486905      55.38366298       1.89729325  F      -0.00000018      -0.00000016       0.00000004
W       31.11547086      55.37616879       2.88902857  T       0.00000000       0.00000000       0.00000000
W       29.81911375      57.62156439       1.04194589  T       0.00000000       0.00000000       0.00000000
W       32.41039441      57.62304070       1.92460144  T       0.00000000       0.00000000       0.00000000
W       35.00134056      57.62502547       2.80181485  T       0.00000000       0.00000000       0.00000000
W       33.70509275      59.87017922       0.96335023  T       0.00000000       0.00000000       0.00000000
W       36.29589595      59.87244646       1.83933004  T       0.00000000       0.00000000       0.00000000
W       31.11406521      59.86833201       2.83196244  T       0.00000000       0.00000000       0.00000000
W       29.81777342      62.11355851       0.99156822  T       0.00000000       0.00000000       0.00000000
W       32.40887654      62.11528097       1.87532396  T       0.00000000       0.00000000       0.00000000
W       34.99980404      62.11734065       2.75519231  T       0.00000000       0.00000000       0.00000000
W       33.70371563      64.36222950       0.92177354  T       0.00000000       0.00000000       0.00000000
W       36.29466293      64.36432758       1.80155860  T       0.00000000       0.00000000       0.00000000
W       31.11268439      64.36034321       2.78807898  T       0.00000000       0.00000000       0.00000000
W       32.40762991      66.60711419       1.83781499  T       0.00000000       0.00000000       0.00000000
W       34.99867890      66.60903179       2.72082708  T       0.00000000       0.00000000       0.00000000
W       37.58264517      12.73476296      -0.84389257  T       0.00000000       0.00000000       0.00000000
W       40.17577100      12.73652420       0.10954057  T       0.00000000       0.00000000       0.00000000
W       42.76880676      12.73797942       1.06477227  T       0.00000000       0.00000000       0.00000000
W       41.47209916      14.98182256      -0.79621807  T       0.00000000       0.00000000       0.00000000
W       44.06518018      14.98324838       0.16294103  T       0.00000000       0.00000000       0.00000000
W       38.87890834      14.97997177       0.99597798  T       0.00000000       0.00000000       0.00000000
W       37.58184074      17.22302956      -0.87094177  T       0.00000000       0.00000000       0.00000000
W       40.17520479      17.22523788       0.08791438  T       0.00000000       0.00000000       0.00000000
W       42.76846685      17.22716410       1.04964509  T       0.00000000       0.00000000       0.00000000
W       41.47154329      19.47057250      -0.81820595  T       0.00000000       0.00000000       0.00000000
W       44.06488357      19.47253805       0.14911580  T       0.00000000       0.00000000       0.00000000
W       38.87806635      19.46817069       0.96718169  T       0.00000000       0.00000000       0.00000000
W       37.58064684      21.71063680      -0.90831074  T       0.00000000       0.00000000       0.00000000
W       40.17185005      21.71069370       0.05353663  F       0.00000009       0.00000009       0.00000010
W       42.76576773      21.71315613       1.02247625  F      -0.00000038      -0.00000018       0.00000001
W       41.46631512      23.95257259      -0.86106092  F      -0.00000031      -0.00000007       0.00000019
W       44.06070616      23.95435912       0.11556711  F      -0.00000005      -0.00000008       0.00000021
W       38.87299879      23.95122217       0.91908598  F      -0.00000021       0.00000027       0.00000030
W       37.57340316      26.19210695      -0.97147457  F       0.00000032       0.00000012       0.00000009
W       40.16647431      26.19328537      -0.00327507  F      -0.00000036       0.00000004       0.00000011
W       42.76068693      26.19481528       0.97469385  F      -0.00000021      -0.00000011       0.00000001
W       41.45979045      28.43525956      -0.92670373  F      -0.00000021       0.00000014       0.00000009
W       44.05501794      28.43651989       0.06341560  F      -0.00000027       0.00000012       0.00000010
W       38.86633819      28.43436600       0.84647263  F      -0.00000022       0.00000029      -0.00000001
W       37.56691435      30.67650659      -1.05946700  F      -0.00000035      -0.00000016       0.00000008
W       40.15870317      30.67616907      -0.08937014  F      -0.00000048       0.00000004       0.00000003
W       42.75250135      30.67667759       0.89757885  F      -0.00000038      -0.00000015       0.00000026
W       41.45016784      32.91755671      -1.03259425  F      -0.00000047       0.00000024       0.00000024
W       44.04421343      32.91758941      -0.03061788  F      -0.00000011      -0.00000024       0.00000026
W       38.85914908      32.91878422       0.74042986  F       0.00000022       0.00000005       0.00000012
W       37.56273734      35.16353596      -1.18186576  F       0.00000006       0.00000034       0.00000012
W       40.15106483      35.16130520      -0.22191987  F      -0.00000033       0.00000005       0.00000007
W       42.74054210      35.15885451       0.76016602  F       0.00000013       0.00000019       0.00000019
W       41.44337640      37.40487150      -1.20642625  F       0.00000012       0.00000012      -0.00000010
W       44.02987265      37.40066390      -0.22429804  F      -0.00000021      -0.00000030       0.00000020
W       38.85687731      37.40792143       0.58870210  F       0.00000007      -0.00000011      -0.00000023
W       37.56687776      39.65600972      -1.34160347  F       0.00000044       0.00000028      -0.00000013
W       40.15363240      39.65427878      -0.41583717  F       0.00000023       0.00000033      -0.00000015
W       42.73921389      39.65119714       0.51628815  F      -0.00000002      -0.00000024      -0.00000007
W       41.45199280      41.90601870       1.29187146  F       0.00000011      -0.00000053      -0.00000037
W       44.03304534      41.91227888       2.16633120  F       0.00000014       0.00000002      -0.00000014
W       38.86553562      41.90457559       3.14600944  F      -0.00000002      -0.00000011      -0.00000007
W       37.57688820      44.15292024       1.23558803  F       0.00000039      -0.00000009       0.00000018
W       40.16537250      44.15671031       2.11569084  F       0.00000014       0.00000052      -0.00000010
W       42.75330423      44.16488890       2.97287333  F       0.00000012      -0.00000013      -0.00000036
W       41.46643360      46.41020942       1.07857295  F      -0.00000039      -0.00000076      -0.00000040
W       44.05887418      46.42116204       1.90475963  F       0.00000012      -0.00000039      -0.00000019
W       38.87635555      46.40335838       2.97068839  F      -0.00000015      -0.00000057      -0.00000015
W       37.58518674      48.64828659       1.09483541  F      -0.00000019       0.00000048      -0.00000002
W       40.17549721      48.65391261       1.95645353  F      -0.00000024       0.00000032       0.00000018
W       42.76688496      48.66183592       2.79783592  F      -0.00000028       0.00000047       0.00000009
W       41.47350200      50.90331144       0.95034010  F      -0.00000014      -0.00000045       0.00000014
W       44.06486558      50.91054327       1.78692336  F      -0.00000003      -0.00000026       0.00000019
W       38.88276949      50.89721253       2.84681944  F      -0.00000029      -0.00000014       0.00000010
W       37.58899368      53.14053475       0.99509443  F      -0.00000033      -0.00000010       0.00000007
W       40.17939380      53.14541167       1.85661065  F      -0.00000017       0.00000019       0.00000010
W       42.77017160      53.15107322       2.70702558  F      -0.00000023       0.00000029       0.00000019
W       41.47543069      55.39247208       0.87597778  F      -0.00000068       0.00000006      -0.00000007
W       44.06643302      55.39703085       1.72832347  F      -0.00000002       0.00000000      -0.00000001
W       38.88489231      55.38797195       2.76542461  F      -0.00000016       0.00000020      -0.00000002
W       37.59080116      57.62985847       0.92659634  F      -0.00000006       0.00000032       0.00000007
W       40.18070217      57.63418688       1.79327239  F      -0.00000021      -0.00000017       0.00000016
W       42.77160187      57.63800859       2.65440555  F       0.00000028       0.00000007       0.00000004
W       41.47726199      59.87764297       0.82726024  T       0.00000000       0.00000000       0.00000000
W       44.06751288      59.88144310       1.69303527  F      -0.00000018      -0.00000003      -0.00000002
W       38.88657193      59.87502716       2.71035379  T       0.00000000       0.00000000       0.00000000
W       37.59062923      62.11965578       0.88168052  T       0.00000000       0.00000000       0.00000000
W       40.18145548      62.12203110       1.75369547  T       0.00000000       0.00000000       0.00000000
W       42.77238245      62.12415200       2.62233270  T       0.00000000       0.00000000       0.00000000
W       41.47661695      64.36850738       0.80247752  T       0.00000000       0.00000000       0.00000000
W       44.06774972      64.37008229       1.67388654  T       0.00000000       0.00000000       0.00000000
W       38.88560395      64.36649544       2.67814731  T       0.00000000       0.00000000       0.00000000
W       37.58971754      66.61102125       0.85176621  T       0.00000000       0.00000000       0.00000000
W       40.18080774      66.61291616       1.72961950  T       0.00000000       0.00000000       0.00000000
W       42.77199370      66.61450484       2.60540350  T       0.00000000       0.00000000       0.00000000
W       41.47619852      68.85893970       0.78501887  T       0.00000000       0.00000000       0.00000000
W       44.06752466      68.86011127       1.66302023  T       0.00000000       0.00000000       0.00000000
W       38.88496308      68.85737664       2.65496363  T       0.00000000       0.00000000       0.00000000
W       49.25104892      10.49436165      -0.66845704  T       0.00000000       0.00000000       0.00000000
W       46.65822668      10.49436165       1.12668744  T       0.00000000       0.00000000       0.00000000
W       45.36175103      12.73894498      -0.72808582  T       0.00000000       0.00000000       0.00000000
W       47.95463780      12.73928383       0.22911520  T       0.00000000       0.00000000       0.00000000
W       50.54752457      12.73894498       1.18631622  T       0.00000000       0.00000000       0.00000000
W       49.25111089      14.98402824      -0.66514106  T       0.00000000       0.00000000       0.00000000
W       51.84409542      14.98324838       0.29528937  T       0.00000000       0.00000000       0.00000000
W       46.65816471      14.98402824       1.12337146  T       0.00000000       0.00000000       0.00000000
W       45.36159790      17.22849335      -0.73587857  T       0.00000000       0.00000000       0.00000000
W       47.95463780      17.22896956       0.22911520  T       0.00000000       0.00000000       0.00000000
W       50.54767770      17.22849335       1.19410897  T       0.00000000       0.00000000       0.00000000
W       49.25120104      19.47365610      -0.66041993  T       0.00000000       0.00000000       0.00000000
W       51.84439203      19.47253805       0.30911460  T       0.00000000       0.00000000       0.00000000
W       46.65807456      19.47365610       1.11865033  T       0.00000000       0.00000000       0.00000000
W       45.35969688      21.71424997      -0.75343950  F      -0.00000025      -0.00000011       0.00000016
W       47.95413720      21.71461214       0.22276121  F      -0.00000006       0.00000011      -0.00000000
W       50.54860438      21.71448137       1.19962117  F      -0.00000019       0.00000010       0.00000014
W       49.25122174      23.95562316      -0.66619341  F      -0.00000031      -0.00000016       0.00000009
W       51.84655945      23.95483108       0.31887412  F      -0.00000007       0.00000001       0.00000015
W       46.65579318      23.95544442       1.09786985  F      -0.00000030      -0.00000031       0.00000016
W       45.35617681      26.19622956      -0.78713803  F      -0.00000014      -0.00000023      -0.00000009
W       47.95262937      26.19684262       0.20740329  F      -0.00000010       0.00000015      -0.00000010
W       50.54940799      26.19657672       1.20433435  F      -0.00000001       0.00000008      -0.00000019
W       49.25084100      28.43727446      -0.67130029  F      -0.00000010      -0.00000027      -0.00000002
W       51.84934241      28.43679199       0.33973101  F       0.00000009       0.00000019      -0.00000019
W       46.65223298      28.43723061       1.06682647  F       0.00000040      -0.00000005      -0.00000001
W       45.34928162      30.67723345      -0.84336360  F      -0.00000009      -0.00000019       0.00000014
W       47.94963857      30.67689723       0.18400578  F       0.00000008      -0.00000068       0.00000012
W       50.55169381      30.67670870       1.21794198  F       0.00000014      -0.00000016      -0.00000001
W       49.25059147      32.91388500      -0.67587107  F       0.00000015       0.00000002       0.00000006
W       51.85729196      32.91604310       0.38877325  F      -0.00000009       0.00000005      -0.00000019
W       46.64366709      32.91634769       1.00824588  F      -0.00000019       0.00000004       0.00000022
W       45.33419545      35.15811196      -0.96507421  F      -0.00000017       0.00000039       0.00000059
W       47.93957788      35.14841703       0.13136987  F      -0.00000029       0.00000015       0.00000034
W       50.56147055      35.14836043       1.26212809  F      -0.00000030      -0.00000011       0.00000002
W       49.25076806      37.35911192      -0.67892547  F      -0.00000030       0.00000015       0.00000006
W       51.87827338      37.39467046       0.55829629  F      -0.00000034      -0.00000002       0.00000003
W       46.62194918      37.39480860       0.82819060  F      -0.00000015      -0.00000022       0.00000061
W       45.32045332      39.64809700      -1.27924382  F       0.00000027       0.00000000       0.00000010
W       47.91651148      39.64456083      -0.22697708  F       0.00000021      -0.00000001       0.00000033
W       50.58318739      39.64396061       1.60600469  F       0.00000013       0.00000029       0.00000020
W       49.24933868      41.95333679       0.68313747  F       0.00000017       0.00000042      -0.00000009
W       51.89486044      41.94039625       1.14145130  F       0.00000008       0.00000001      -0.00000007
W       46.60316524      41.94237502       2.97441014  F       0.00000031       0.00000049       0.00000022
W       45.34407544      44.18287303       1.03207408  F       0.00000011      -0.00000022      -0.00000006
W       47.94854816      44.19974172       1.73170930  F      -0.00000019       0.00000009       0.00000044
W       50.55029941      44.19903369       2.37827541  F      -0.00000025       0.00000014       0.00000029
W       49.24947454      46.44079185       0.67781234  F      -0.00000000      -0.00000012       0.00000007
W       51.84359962      46.43244117       1.42232332  F       0.00000010      -0.00000006      -0.00000014
W       46.65520040      46.43355469       2.68314265  F      -0.00000014       0.00000021       0.00000015
W       45.35972850      48.67118133       0.86357654  F       0.00000001       0.00000007       0.00000021
W       47.95263415      48.67865350       1.65712980  F       0.00000001       0.00000065       0.00000009
W       50.54629826      48.67810900       2.44312404  F      -0.00000016       0.00000024      -0.00000016
W       49.24947653      50.91936491       0.67291578  F       0.00000011       0.00000023       0.00000028
W       51.84216876      50.91608447       1.48663540  F       0.00000008       0.00000015       0.00000005
W       46.65676215      50.91710195       2.60875540  F      -0.00000034      -0.00000028       0.00000017