1312
Lattice="120.63910674415995 0.0 0.0 0.0 114.28968007341469 0.0 0.0 0.0 3.1747133353726302" Properties=species:S:1:pos:R:3:fix_mask:L:1:forces:R:3 energy=-16754.017408157062 pbc="T T T"
W       15.25872071      47.90926032       1.58735667  T       0.00000000       0.00000000       0.00000000
W       15.19915361      51.07752982       1.58735667  T       0.00000000       0.00000000       0.00000000
W       15.13731067      54.24823022       1.58735667  T       0.00000000       0.00000000       0.00000000
W       18.24850044      57.43106631       1.58735667  T       0.00000000       0.00000000       0.00000000
W       18.18129721      60.60744054       1.58735667  T       0.00000000       0.00000000       0.00000000
W       18.11594980      63.78682220       1.58735667  T       0.00000000       0.00000000       0.00000000
W       18.05380270      66.96881917       1.58735667  T       0.00000000       0.00000000       0.00000000
W       18.60942790      38.42915252       1.58735667  T       0.00000000       0.00000000       0.00000000
W       18.55975378      41.59168936       1.58735667  T       0.00000000       0.00000000       0.00000000
W       16.93713326      43.16674415       0.00000000  T       0.00000000       0.00000000       0.00000000
W       18.50499734      44.75522444       1.58735667  T       0.00000000       0.00000000       0.00000000
W       16.88136300      46.33160121       0.00000000  T       0.00000000       0.00000000       0.00000000
W       18.44554301      47.92037422       1.58735667  T       0.00000000       0.00000000       0.00000000
W       16.82161432      49.49831793       0.00000000  T       0.00000000       0.00000000       0.00000000
W       18.38215731      51.08774896       1.58735667  T       0.00000000       0.00000000       0.00000000
W       16.75878590      52.66740317       0.00000000  T       0.00000000       0.00000000       0.00000000
W       18.31599069      54.25786700       1.58735667  T       0.00000000       0.00000000       0.00000000
W       16.69407988      55.83924041       0.00000000  T       0.00000000       0.00000000       0.00000000
W       21.42249990      57.44122852       1.58735667  T       0.00000000       0.00000000       0.00000000
W       19.80050744      59.02388241       0.00000000  T       0.00000000       0.00000000       0.00000000
W       21.35009153      60.61788289       1.58735667  T       0.00000000       0.00000000       0.00000000
W       19.73162745      62.20204267       0.00000000  T       0.00000000       0.00000000       0.00000000
W       21.28000386      63.79800092       1.58735667  T       0.00000000       0.00000000       0.00000000
W       19.66560294      65.38322826       0.00000000  T       0.00000000       0.00000000       0.00000000
W       21.21386903      66.98106129       1.58735667  T       0.00000000       0.00000000       0.00000000
W       19.60372081      68.56689265       0.00000000  T       0.00000000       0.00000000       0.00000000
W       21.15283581      70.16636166       1.58735667  T       0.00000000       0.00000000       0.00000000
W       19.54682807      71.75237810       0.00000000  T       0.00000000       0.00000000       0.00000000
W       21.09753396      73.35314559       1.58735667  T       0.00000000       0.00000000       0.00000000
W       21.89052208      32.12289109       1.58735667  T       0.00000000       0.00000000       0.00000000
W       21.85077164      35.28420164       1.58735667  T       0.00000000       0.00000000       0.00000000
W       20.23032321      36.85618059       0.00000000  T       0.00000000       0.00000000       0.00000000
W       21.80543609      38.44524464       1.58735667  T       0.00000000       0.00000000       0.00000000
W       20.18262284      40.01786492       0.00000000  T       0.00000000       0.00000000       0.00000000
W       21.75418313      41.60653526       1.58735667  T       0.00000000       0.00000000       0.00000000
W       20.12937128      43.18019230       0.00000000  T       0.00000000       0.00000000       0.00000000
W       21.69695180      44.76872805       1.58735667  T       0.00000000       0.00000000       0.00000000
W       20.07074293      46.34381335       0.00000000  T       0.00000000       0.00000000       0.00000000
W       21.63407866      47.93257894       1.58735667  T       0.00000000       0.00000000       0.00000000
W       20.00731559      49.50942426       0.00000000  T       0.00000000       0.00000000       0.00000000
W       21.56639920      51.09886468       1.58735667  T       0.00000000       0.00000000       0.00000000
W       19.94011994      52.67767856       0.00000000  T       0.00000000       0.00000000       0.00000000
W       21.49527449      54.26826420       1.58735667  T       0.00000000       0.00000000       0.00000000
W       19.87060590      55.84907945       0.00000000  T       0.00000000       0.00000000       0.00000000
W       24.59635643      57.45222387       1.58735667  T       0.00000000       0.00000000       0.00000000
W       22.97159182      59.03453205       0.00000000  T       0.00000000       0.00000000       0.00000000
W       24.51787672      60.62923405       1.58735667  T       0.00000000       0.00000000       0.00000000
W       22.89731849      62.21327568       0.00000000  T       0.00000000       0.00000000       0.00000000
W       24.44234939      63.81027213       1.58735667  T       0.00000000       0.00000000       0.00000000
W       22.82662317      65.39548158       0.00000000  T       0.00000000       0.00000000       0.00000000
W       24.37177470      66.99463119       1.58735667  T       0.00000000       0.00000000       0.00000000
W       22.76103577      68.58042519       0.00000000  T       0.00000000       0.00000000       0.00000000
W       24.30746367      70.18138730       1.58735667  T       0.00000000       0.00000000       0.00000000
W       22.70147811      71.76726181       0.00000000  T       0.00000000       0.00000000       0.00000000
W       24.25002392      73.36958448       1.58735667  T       0.00000000       0.00000000       0.00000000
W       22.64830309      74.95516642       0.00000000  T       0.00000000       0.00000000       0.00000000
W       24.19948628      76.55837073       1.58735667  T       0.00000000       0.00000000       0.00000000
W       22.60142015      78.14342661       0.00000000  T       0.00000000       0.00000000       0.00000000
W       24.15548613      79.74706754       1.58735667  T       0.00000000       0.00000000       0.00000000
W       25.12324470      28.98125118       1.58735667  T       0.00000000       0.00000000       0.00000000
W       23.50747289      30.55183082       0.00000000  T       0.00000000       0.00000000       0.00000000
W       25.08920498      32.14275957       1.58735667  T       0.00000000       0.00000000       0.00000000
W       23.47049031      33.71310886       0.00000000  T       0.00000000       0.00000000       0.00000000
W       25.04959031      35.30330526       1.58735667  T       0.00000000       0.00000000       0.00000000
W       23.42786922      36.87376167       0.00000000  T       0.00000000       0.00000000       0.00000000
W       25.00371356      38.46325750       1.58735667  T       0.00000000       0.00000000       0.00000000
W       23.37908888      40.03424314       0.00000000  T       0.00000000       0.00000000       0.00000000
W       24.95102801      41.62317493       1.58735667  T       0.00000000       0.00000000       0.00000000
W       23.32384226      43.19517742       0.00000000  T       0.00000000       0.00000000       0.00000000
W       24.89128147      44.78381694       1.58735667  T       0.00000000       0.00000000       0.00000000
W       23.26218327      46.35734402       0.00000000  T       0.00000000       0.00000000       0.00000000
W       24.82470311      47.94611110       1.58735667  T       0.00000000       0.00000000       0.00000000
W       23.19467686      49.52161612       0.00000000  T       0.00000000       0.00000000       0.00000000
W       24.74908797      51.10976785       1.58735667  F       0.00057783       0.00003549       0.00000000
W       23.12249762      52.68884418       0.00000000  T       0.00000000       0.00000000       0.00000000
W       24.67219561      54.27853887       1.58735667  F       0.00032016       0.00021451      -0.00000000
W       23.04741045      55.85970074       0.00000000  T       0.00000000       0.00000000       0.00000000
W       27.76246941      57.46364388       1.58735667  F       0.00041683       0.00019700      -0.00000000
W       26.14201006      59.04611040       0.00000000  T       0.00000000       0.00000000       0.00000000
W       27.67873476      60.64308918       1.58735667  F      -0.00005891      -0.00005270       0.00000000
W       26.06145412      62.22559566       0.00000000  T       0.00000000       0.00000000       0.00000000
W       27.59798177      63.82576917       1.58735667  F      -0.00036413      -0.00058313       0.00000000
W       25.98545831      65.40907143       0.00000000  T       0.00000000       0.00000000       0.00000000
W       27.52704368      67.00983995       1.58735667  T       0.00000000       0.00000000       0.00000000
W       25.91584374      68.59555981       0.00000000  T       0.00000000       0.00000000       0.00000000
W       27.45930624      70.19832264       1.58735667  T       0.00000000       0.00000000       0.00000000
W       25.85357807      71.78396506       0.00000000  T       0.00000000       0.00000000       0.00000000
W       27.39985387      73.38811383       1.58735667  T       0.00000000       0.00000000       0.00000000
W       25.79888148      74.97326878       0.00000000  T       0.00000000       0.00000000       0.00000000
W       27.34847326      76.57819617       1.58735667  T       0.00000000       0.00000000       0.00000000
W       25.75144008      78.16264179       0.00000000  T       0.00000000       0.00000000       0.00000000
W       27.30451091      79.76781582       1.58735667  T       0.00000000       0.00000000       0.00000000
W       25.71062653      81.35147838       0.00000000  T       0.00000000       0.00000000       0.00000000
W       27.26710811      82.95647461       1.58735667  T       0.00000000       0.00000000       0.00000000
W       28.35052819      25.84079432       1.58735667  T       0.00000000       0.00000000       0.00000000
W       26.73764876      27.41097179       0.00000000  T       0.00000000       0.00000000       0.00000000
W       28.32263330      29.00355673       1.58735667  T       0.00000000       0.00000000       0.00000000
W       26.70666100      30.57297741       0.00000000  T       0.00000000       0.00000000       0.00000000
W       28.28961501      32.16480788       1.58735667  T       0.00000000       0.00000000       0.00000000
W       26.67027385      33.73371999       0.00000000  T       0.00000000       0.00000000       0.00000000
W       28.25055841      35.32470154       1.58735667  T       0.00000000       0.00000000       0.00000000
W       26.62766634      36.89346630       0.00000000  T       0.00000000       0.00000000       0.00000000
W       28.20452486      38.48357547       1.58735667  T       0.00000000       0.00000000       0.00000000
W       26.57807606      40.05267726       0.00000000  T       0.00000000       0.00000000       0.00000000
W       28.14928346      41.63970226       1.58735667  F       0.00047931       0.00096571       0.00000000
W       26.52094416      43.21204523       0.00000000  T       0.00000000       0.00000000       0.00000000
W       28.08501881      44.79733927       1.58735667  F       0.00024426       0.00074877      -0.00000000
W       26.45305068      46.37043244      -0.00000000  F       0.00089329       0.00075194       0.00000000
W       28.01167756      47.95738079       1.58735667  F       0.00009909       0.00132599       0.00000000
W       26.37915417      49.53321134       0.00000000  F      -0.00009256      -0.00012081      -0.00000000
W       27.93100202      51.12155599       1.58735667  F      -0.00006768       0.00038484       0.00000000
W       26.29992380      52.69916583       0.00000000  F      -0.00019385       0.00045269       0.00000000
W       27.84671062      54.29005219       1.58735667  F       0.00048461       0.00020711      -0.00000000
W       26.21836980      55.87040393       0.00000000  F      -0.00006753       0.00095233       0.00000000
W       30.92756820      57.47794509       1.58735667  F      -0.00014641      -0.00089066      -0.00000000
W       29.30122216      59.06008676       0.00000000  F      -0.00009174      -0.00049614      -0.00000000
W       30.83534718      60.65888182       1.58735667  F      -0.00022008      -0.00100752      -0.00000000
W       29.21491626      62.24249587      -0.00000000  F       0.00010569      -0.00092534       0.00000000
W       30.74865266      63.84437328       1.58735667  F      -0.00059137      -0.00126748      -0.00000000
W       29.13527642      65.42764447      -0.00000000  F      -0.00010587      -0.00095460       0.00000000
W       30.67093247      67.03271707       1.58735667  F      -0.00010394      -0.00113720       0.00000000
W       29.06364090      68.61516229       0.00000000  F      -0.00051820      -0.00038580      -0.00000000
W       30.60287423      70.22162496       1.58735667  F      -0.00051453      -0.00160670       0.00000000
W       29.00271301      71.80290211       0.00000000  T       0.00000000       0.00000000       0.00000000
W       30.54666348      73.40919335       1.58735667  T       0.00000000       0.00000000       0.00000000
W       28.94679359      74.99371798       0.00000000  T       0.00000000       0.00000000       0.00000000
W       30.49490080      76.60058661       1.58735667  T       0.00000000       0.00000000       0.00000000
W       28.89921546      78.18418878       0.00000000  T       0.00000000       0.00000000       0.00000000
W       30.45149689      79.79101206       1.58735667  T       0.00000000       0.00000000       0.00000000
W       28.85901942      81.37368485       0.00000000  T       0.00000000       0.00000000       0.00000000
W       30.41524618      82.98000280       1.58735667  T       0.00000000       0.00000000       0.00000000
W       28.82516344      84.56184203       0.00000000  T       0.00000000       0.00000000       0.00000000
W       30.38498245      86.16734393       1.58735667  T       0.00000000       0.00000000       0.00000000
W       28.79665079      87.74849387       0.00000000  T       0.00000000       0.00000000       0.00000000
W       30.35966479      89.35299049       1.58735667  T       0.00000000       0.00000000       0.00000000
W       31.57127065      22.69990079       1.58735667  T       0.00000000       0.00000000       0.00000000
W       29.96176258      24.27050878       0.00000000  T       0.00000000       0.00000000       0.00000000
W       31.54942243      25.86487028       1.58735667  T       0.00000000       0.00000000       0.00000000
W       29.93693476      27.43426889       0.00000000  T       0.00000000       0.00000000       0.00000000
W       31.52323266      29.02803123       1.58735667  T       0.00000000       0.00000000       0.00000000
W       29.90734304      30.59633338       0.00000000  T       0.00000000       0.00000000       0.00000000
W       31.49172789      32.18931347       1.58735667  T       0.00000000       0.00000000       0.00000000
W       29.87202186      33.75674091       0.00000000  T       0.00000000       0.00000000       0.00000000
W       31.45377501      35.34877251       1.58735667  T       0.00000000       0.00000000       0.00000000
W       29.82990714      36.91569030       0.00000000  T       0.00000000       0.00000000       0.00000000
W       31.40704517      38.50271479       1.58735667  F      -0.00011601       0.00129932       0.00000000
W       29.77840098      40.07031209       0.00000000  F       0.00015184       0.00115105      -0.00000000
W       31.35019838      41.65742081       1.58735667  F      -0.00027178       0.00108346      -0.00000000
W       29.71742073      43.22606789      -0.00000000  F       0.00012335       0.00089432       0.00000000
W       31.28221796      44.81348751       1.58735667  F       0.00010434       0.00017808      -0.00000000
W       29.64617161      46.38417365       0.00000000  F      -0.00031609       0.00043291      -0.00000000
W       31.20328451      47.97210484       1.58735667  F      -0.00040271       0.00022651       0.00000000
W       29.56570128      49.54552459       0.00000000  F       0.00023152       0.00092606      -0.00000000
W       31.11513663      51.13488691       1.58735667  F       0.00056027       0.00023307       0.00000000
W       29.47881032      52.71153004      -0.00000000  F       0.00008099       0.00006874       0.00000000
W       31.02179801      54.30326804       1.58735667  F       0.00029760      -0.00049766      -0.00000000
W       29.38945573      55.88281006       0.00000000  F       0.00009896      -0.00046153       0.00000000
W       34.09148754      57.49383319       1.58735667  F      -0.00000911       0.00049696      -0.00000000
W       32.46058898      59.07574518       0.00000000  F      -0.00006358      -0.00022294       0.00000000
W       33.98901474      60.67670558       1.58735667  F       0.00039359       0.00004152      -0.00000000
W       32.36639191      62.26042434      -0.00000000  F       0.00040021      -0.00045495       0.00000000
W       33.89493219      63.86515811       1.58735667  F       0.00043412      -0.00016994      -0.00000000
W       32.28100735      65.44918708      -0.00000000  F      -0.00004234      -0.00131982      -0.00000000
W       33.81247535      67.05679005       1.58735667  F       0.00037416      -0.00063488       0.00000000
W       32.20626825      68.63988504       0.00000000  F      -0.00025061      -0.00172101      -0.00000000
W       33.74263338      70.24932030       1.58735667  F      -0.00041679      -0.00138213      -0.00000000
W       32.14331130      71.83034861       0.00000000  F      -0.00101664      -0.00197167      -0.00000000
W       33.68434061      73.44121697       1.58735667  F      -0.00109855      -0.00163024       0.00000000
W       32.08930766      75.01985118      -0.00000000  F      -0.00020835      -0.00092864      -0.00000000
W       33.63602390      76.63001956       1.58735667  F      -0.00035685      -0.00132336       0.00000000
W       32.04465154      78.20845539       0.00000000  T       0.00000000       0.00000000       0.00000000
W       33.59646729      79.81699464       1.58735667  T       0.00000000       0.00000000       0.00000000
W       32.00565954      81.39838189       0.00000000  T       0.00000000       0.00000000       0.00000000
W       33.56198254      83.00597579       1.58735667  T       0.00000000       0.00000000       0.00000000
W       31.97342021      84.58649440       0.00000000  T       0.00000000       0.00000000       0.00000000
W       33.53371102      86.19286628       1.58735667  T       0.00000000       0.00000000       0.00000000
W       31.94670664      87.77272972       0.00000000  T       0.00000000       0.00000000       0.00000000
W       33.51042620      89.37774464       1.58735667  T       0.00000000       0.00000000       0.00000000
W       34.78498051      19.55688338       1.58735667  T       0.00000000       0.00000000       0.00000000
W       33.17901092      21.12875912       0.00000000  T       0.00000000       0.00000000       0.00000000
W       34.76862406      22.72474723       1.58735667  T       0.00000000       0.00000000       0.00000000
W       33.16000106      24.29511151       0.00000000  T       0.00000000       0.00000000       0.00000000
W       34.74886996      25.89079725       1.58735667  T       0.00000000       0.00000000       0.00000000
W       33.13711250      27.45961666       0.00000000  T       0.00000000       0.00000000       0.00000000
W       34.72483768      29.05479274       1.58735667  T       0.00000000       0.00000000       0.00000000
W       33.10940238      30.62210931       0.00000000  T       0.00000000       0.00000000       0.00000000
W       34.69632950      32.21506433       1.58735667  F      -0.00014676       0.00086197       0.00000000
W       33.07626568      33.78108938       0.00000000  F       0.00007767       0.00108404      -0.00000000
W       34.65889233      35.37114784       1.58735667  F      -0.00037817       0.00104407       0.00000000
W       33.03399541      36.93627937       0.00000000  F      -0.00024061       0.00131674      -0.00000000
W       34.61338213      38.52623847       1.58735667  F      -0.00077814       0.00100665       0.00000000
W       32.98255423      40.09090877       0.00000000  F      -0.00057049       0.00141915       0.00000000
W       34.55555167      41.68004242       1.58735667  F       0.00023262       0.00058020      -0.00000000
W       32.91900669      43.24546867      -0.00000000  F       0.00020356       0.00040700       0.00000000
W       34.48404184      44.83392613       1.58735667  F       0.00101842       0.00035927       0.00000000
W       32.84295504      46.40149053       0.00000000  F       0.00033258       0.00005152      -0.00000000
W       34.39882302      47.99008547       1.58735667  F      -0.00015888      -0.00029578       0.00000000
W       32.75532831      49.56094696       0.00000000  F       0.00024212      -0.00022985      -0.00000000
W       34.30178316      51.15089137       1.58735667  F      -0.00053898      -0.00011257       0.00000000
W       32.65930693      52.72568983       0.00000000  F      -0.00030810      -0.00019783      -0.00000000
W       34.19749747      54.31843278       1.58735667  F      -0.00043030       0.00043139       0.00000000
W       32.55951973      55.89715940       0.00000000  F      -0.00017089      -0.00021589      -0.00000000
W       37.25379203      57.51263042       1.58735667  F      -0.00004189      -0.00014839       0.00000000
W       35.61774271      59.09390554      -0.00000000  F       0.00052489       0.00029275       0.00000000
W       37.13890699      60.69787403       1.58735667  F      -0.00033735      -0.00022321       0.00000000
W       35.51379751      62.28127152      -0.00000000  F       0.00060414      -0.00026190       0.00000000
W       37.03606269      63.88970624       1.58735667  F      -0.00006477      -0.00031487       0.00000000
W       35.42203235      65.47327542       0.00000000  F       0.00011564      -0.00010155      -0.00000000
W       36.94893528      67.08476574       1.58735667  F      -0.00024629       0.00015743       0.00000000
W       35.34433034      68.66720543      -0.00000000  F       0.00034096      -0.00006522       0.00000000
W       36.87768105      70.28018485       1.58735667  F       0.00031454       0.00013645      -0.00000000
W       35.28033007      71.86094249      -0.00000000  F      -0.00008472      -0.00134203      -0.00000000
W       36.82033977      73.47397108       1.58735667  F       0.00033127      -0.00092570       0.00000000
W       35.22766919      75.05264716      -0.00000000  F      -0.00119480      -0.00131933       0.00000000
W       36.77432684      76.66463335       1.58735667  F      -0.00112638      -0.00071548      -0.00000000
W       35.18545238      78.24053672      -0.00000000  F      -0.00069249      -0.00139961       0.00000000
W       36.73769848      79.85120838       1.58735667  F      -0.00062033      -0.00171675      -0.00000000
W       35.15069241      81.42582355       0.00000000  T       0.00000000       0.00000000       0.00000000
W       36.70757830      83.03452921       1.58735667  T       0.00000000       0.00000000       0.00000000
W       35.12067109      84.61344738       0.00000000  T       0.00000000       0.00000000       0.00000000
W       36.68185089      86.22044294       1.58735667  T       0.00000000       0.00000000       0.00000000
W       35.09622458      87.79881959       0.00000000  T       0.00000000       0.00000000       0.00000000
W       36.66100341      89.40406315       1.58735667  T       0.00000000       0.00000000       0.00000000
W       35.07617999      90.98213984       0.00000000  T       0.00000000       0.00000000       0.00000000
W       36.64395812      92.58568220       1.58735667  T       0.00000000       0.00000000       0.00000000
W       37.98004807      19.58129902       1.58735667  T       0.00000000       0.00000000       0.00000000
W       36.37529187      21.15354593       0.00000000  T       0.00000000       0.00000000       0.00000000
W       37.96586577      22.75081289       1.58735667  T       0.00000000       0.00000000       0.00000000
W       36.35845259      24.32128577       0.00000000  T       0.00000000       0.00000000       0.00000000
W       37.94852844      25.91844540       1.58735667  T       0.00000000       0.00000000       0.00000000
W       36.33789944      27.48701783       0.00000000  T       0.00000000       0.00000000       0.00000000
W       37.92711653      29.08384488       1.58735667  T       0.00000000       0.00000000       0.00000000
W       36.31347903      30.64938963       0.00000000  F       0.00020235       0.00080227      -0.00000000
W       37.90095889      32.24307878       1.58735667  F      -0.00086571       0.00075928       0.00000000
W       36.28147215      33.80702312       0.00000000  F      -0.00085362       0.00072278      -0.00000000
W       37.86730051      35.40084344       1.58735667  F      -0.00067579       0.00038959       0.00000000
W       36.24180605      36.96306212       0.00000000  F      -0.00071622       0.00053346      -0.00000000
W       37.82324760      38.55569493       1.58735667  F       0.00047046       0.00034812      -0.00000000
W       36.19068499      40.11694530      -0.00000000  F       0.00015032       0.00050895       0.00000000
W       37.76569130      41.70803954       1.58735667  F       0.00102301       0.00011339      -0.00000000
W       36.12545432      43.26951792       0.00000000  F       0.00106000       0.00041236      -0.00000000
W       37.69163446      44.85920786       1.58735667  F      -0.00016732       0.00033652       0.00000000
W       36.04464984      46.42273791       0.00000000  F       0.00026011       0.00016148      -0.00000000
W       37.59963750      48.01206471       1.58735667  F      -0.00057033       0.00042305       0.00000000
W       35.94884040      49.57947769       0.00000000  F      -0.00069262      -0.00021561       0.00000000
W       37.49183313      51.17015308       1.58735667  F       0.00027489       0.00052678       0.00000000
W       35.84165163      52.74251068       0.00000000  F      -0.00032977       0.00042610      -0.00000000
W       37.37406161      54.33653272       1.58735667  F      -0.00011052      -0.00011862      -0.00000000
W       35.72908896      55.91384396      -0.00000000  F       0.00012293       0.00057508       0.00000000
W       40.41383051      57.53485758       1.58735667  F       0.00053016       0.00125435      -0.00000000
W       38.77168019      59.11544383      -0.00000000  F       0.00001392       0.00057874      -0.00000000
W       40.28343115      60.72328823       1.58735667  F       0.00094106       0.00065865       0.00000000
W       38.65596067      62.30622228      -0.00000000  F      -0.00028399       0.00047791       0.00000000
W       40.17059788      63.91943100       1.58735667  F      -0.00011365       0.00034668      -0.00000000
W       38.55724058      65.50216684       0.00000000  F       0.00003337      -0.00014693      -0.00000000
W       40.07920488      67.11849879       1.58735667  F       0.00019799      -0.00056163      -0.00000000
W       38.47709714      68.69938612      -0.00000000  F      -0.00069645       0.00021523      -0.00000000
W       40.00801640      70.31652452       1.58735667  F      -0.00065062       0.00037426      -0.00000000
W       38.41360822      71.89515531      -0.00000000  F       0.00043064       0.00009305       0.00000000
W       39.95325299      73.51134647       1.58735667  F       0.00006070       0.00024008      -0.00000000
W       38.36369723      75.08788375      -0.00000000  F       0.00040075      -0.00063748       0.00000000
W       39.91100865      76.70207029       1.58735667  F       0.00049546      -0.00067893      -0.00000000
W       38.32438026      78.27684286      -0.00000000  F      -0.00112282      -0.00085615       0.00000000
W       39.87801114      79.88857919       1.58735667  F      -0.00149943      -0.00077987      -0.00000000
W       38.29318158      81.46149065      -0.00000000  F      -0.00094925      -0.00176745       0.00000000
W       39.85189779      83.07067333       1.58735667  F      -0.00154387      -0.00158002       0.00000000
W       38.26727550      84.64268877       0.00000000  T       0.00000000       0.00000000       0.00000000
W       39.82983375      86.24989298       1.58735667  T       0.00000000       0.00000000       0.00000000
W       38.24556814      87.82661886       0.00000000  T       0.00000000       0.00000000       0.00000000
W       39.81179459      89.43165846       1.58735667  T       0.00000000       0.00000000       0.00000000
W       38.22803006      91.00832621       0.00000000  T       0.00000000       0.00000000       0.00000000
W       39.79723380      92.61136997       1.58735667  T       0.00000000       0.00000000       0.00000000
W       38.21370680      94.18816333       0.00000000  T       0.00000000       0.00000000       0.00000000
W       39.78533489      95.78940698       1.58735667  T       0.00000000       0.00000000       0.00000000
W       41.18417980      16.43299373       1.58735667  T       0.00000000       0.00000000       0.00000000
W       39.58297361      18.00782867       0.00000000  T       0.00000000       0.00000000       0.00000000