1796
Lattice="115.328915376333 0.0 0.0 0.0 117.79423952038104 0.0 0.0 0.0 4.530547673860808" Properties=species:S:1:pos:R:3:fix_mask:L:1:forces:R:3 energy=-22449.78470031435 pbc="T T T"
W       11.27547766      55.14181338      -0.00000000  T       0.00000000       0.00000000       0.00000000
W       11.23756243      57.40525607       2.26527384  T       0.00000000       0.00000000       0.00000000
W       14.40209022      59.67677481      -0.00000000  T       0.00000000       0.00000000       0.00000000
W       14.36145015      61.94343232       2.26527384  T       0.00000000       0.00000000       0.00000000
W       14.71377532      41.60207388      -0.00000000  T       0.00000000       0.00000000       0.00000000
W       14.67803292      43.85662328       2.26527384  T       0.00000000       0.00000000       0.00000000
W       14.64098317      46.11224454      -0.00000000  T       0.00000000       0.00000000       0.00000000
W       12.99472303      48.36453620       0.00000000  T       0.00000000       0.00000000       0.00000000
W       14.60280697      48.36911776       2.26527384  T       0.00000000       0.00000000       0.00000000
W       12.95687907      50.62327615       2.26527384  T       0.00000000       0.00000000       0.00000000
W       14.56369901      50.62740064      -0.00000000  T       0.00000000       0.00000000       0.00000000
W       12.91838076      52.88346327       0.00000000  T       0.00000000       0.00000000       0.00000000
W       14.52386311      52.88722385       2.26527384  T       0.00000000       0.00000000       0.00000000
W       12.87941625      55.14518467       2.26527384  T       0.00000000       0.00000000       0.00000000
W       14.48350848      55.14868769      -0.00000000  T       0.00000000       0.00000000       0.00000000
W       12.84017570      57.40849916       0.00000000  T       0.00000000       0.00000000       0.00000000
W       14.44284678      57.41185997       2.26527384  T       0.00000000       0.00000000       0.00000000
W       16.00328695      59.68023751       2.26527384  T       0.00000000       0.00000000       0.00000000
W       17.60443454      59.68383413      -0.00000000  T       0.00000000       0.00000000       0.00000000
W       15.96112237      61.94700384       0.00000000  T       0.00000000       0.00000000       0.00000000
W       17.56062704      61.95072248       2.26527384  T       0.00000000       0.00000000       0.00000000
W       15.91932227      64.21560741       2.26527384  T       0.00000000       0.00000000       0.00000000
W       17.51722884      64.21959105      -0.00000000  T       0.00000000       0.00000000       0.00000000
W       15.87811688      66.48597128       0.00000000  T       0.00000000       0.00000000       0.00000000
W       17.47449779      66.49035021       2.26527384  T       0.00000000       0.00000000       0.00000000
W       15.83773071      68.75798264       2.26527384  T       0.00000000       0.00000000       0.00000000
W       17.43268471      68.76286879      -0.00000000  T       0.00000000       0.00000000       0.00000000
W       17.39202973      71.03697803       2.26527384  T       0.00000000       0.00000000       0.00000000
W       17.35275744      73.31247698      -0.00000000  T       0.00000000       0.00000000       0.00000000
W       17.31507108      75.58913962       2.26527384  T       0.00000000       0.00000000       0.00000000
W       18.00793872      37.11213606      -0.00000000  T       0.00000000       0.00000000       0.00000000
W       16.36069732      39.35583107       0.00000000  T       0.00000000       0.00000000       0.00000000
W       17.97400718      39.36378365       2.26527384  T       0.00000000       0.00000000       0.00000000
W       16.32561899      41.60882424       2.26527384  T       0.00000000       0.00000000       0.00000000
W       17.93811491      41.61604600      -0.00000000  T       0.00000000       0.00000000       0.00000000
W       16.28891275      43.86269733       0.00000000  T       0.00000000       0.00000000       0.00000000
W       17.90041405      43.86918481       2.26527384  T       0.00000000       0.00000000       0.00000000
W       16.25075341      46.11767383       2.26527384  T       0.00000000       0.00000000       0.00000000
W       17.86109266      46.12345475      -0.00000000  T       0.00000000       0.00000000       0.00000000
W       16.21133907      48.37395992       0.00000000  T       0.00000000       0.00000000       0.00000000
W       17.82036780      48.37909275       2.26527384  T       0.00000000       0.00000000       0.00000000
W       16.17088501      50.63173710       2.26527384  T       0.00000000       0.00000000       0.00000000
W       17.77847810      50.63630864      -0.00000000  T       0.00000000       0.00000000       0.00000000
W       16.12961800      52.89115627       0.00000000  T       0.00000000       0.00000000       0.00000000
W       17.73567668      52.89527760       2.26527384  T       0.00000000       0.00000000       0.00000000
W       16.08777150      55.15233353       2.26527384  T       0.00000000       0.00000000       0.00000000
W       17.69222512      55.15613473      -0.00000000  T       0.00000000       0.00000000       0.00000000
W       16.04558207      57.41534743       0.00000000  T       0.00000000       0.00000000       0.00000000
W       17.64838895      57.41897156       2.26527384  T       0.00000000       0.00000000       0.00000000
W       19.20552674      59.68757548       2.26527384  T       0.00000000       0.00000000       0.00000000
W       20.80655624      59.69147375      -0.00000000  T       0.00000000       0.00000000       0.00000000
W       19.15994363      61.95460126       0.00000000  T       0.00000000       0.00000000       0.00000000
W       20.75904813      61.95865506       2.26527384  T       0.00000000       0.00000000       0.00000000
W       19.11482225      64.22376741       2.26527384  T       0.00000000       0.00000000       0.00000000
W       20.71206352      64.22815688      -0.00000000  T       0.00000000       0.00000000       0.00000000
W       19.07045266      66.49496887       0.00000000  T       0.00000000       0.00000000       0.00000000
W       20.66593020      66.49985527       2.26527384  T       0.00000000       0.00000000       0.00000000
W       19.02711618      68.76805231       2.26527384  T       0.00000000       0.00000000       0.00000000
W       20.62096500      68.77356988      -0.00000000  T       0.00000000       0.00000000       0.00000000
W       18.98508076      71.04282112       0.00000000  T       0.00000000       0.00000000       0.00000000
W       20.57746792      71.04907042       2.26527384  T       0.00000000       0.00000000       0.00000000
W       18.94459488      73.31904243       2.26527384  T       0.00000000       0.00000000       0.00000000
W       20.53571430      73.32608576      -0.00000000  T       0.00000000       0.00000000       0.00000000
W       18.90588034      75.59645617       0.00000000  T       0.00000000       0.00000000       0.00000000
W       20.49594587      75.60431552       2.26527384  T       0.00000000       0.00000000       0.00000000
W       18.86912482      77.87478587       2.26527384  T       0.00000000       0.00000000       0.00000000
W       20.45836184      77.88344392      -0.00000000  T       0.00000000       0.00000000       0.00000000
W       20.42311140      80.16315446       2.26527384  T       0.00000000       0.00000000       0.00000000
W       21.30056752      32.63133308      -0.00000000  T       0.00000000       0.00000000       0.00000000
W       19.65482172      34.87077183       0.00000000  T       0.00000000       0.00000000       0.00000000
W       21.27051941      34.88139238       2.26527384  T       0.00000000       0.00000000       0.00000000
W       19.62256517      37.12140308       2.26527384  T       0.00000000       0.00000000       0.00000000
W       21.23792358      37.13134989      -0.00000000  T       0.00000000       0.00000000       0.00000000
W       19.58802917      39.37231538       0.00000000  T       0.00000000       0.00000000       0.00000000
W       21.20281764      39.38149162       2.26527384  T       0.00000000       0.00000000       0.00000000
W       19.55132102      41.62379468       2.26527384  T       0.00000000       0.00000000       0.00000000
W       21.16530075      41.63213399      -0.00000000  T       0.00000000       0.00000000       0.00000000
W       19.51259787      43.87613612       0.00000000  T       0.00000000       0.00000000       0.00000000
W       21.12553249      43.88360984       2.26527384  T       0.00000000       0.00000000       0.00000000
W       19.47206115      46.12963059       2.26527384  T       0.00000000       0.00000000       0.00000000
W       21.08372733      46.13625209      -0.00000000  T       0.00000000       0.00000000       0.00000000
W       19.42994868      48.38455139       0.00000000  T       0.00000000       0.00000000       0.00000000
W       21.04014554      48.39037714       2.26527384  T       0.00000000       0.00000000       0.00000000
W       19.38652557      50.64114223       2.26527384  T       0.00000000       0.00000000       0.00000000
W       20.99508221      50.64626950      -0.00000000  T       0.00000000       0.00000000       0.00000000
W       19.34207533      52.89960758       0.00000000  T       0.00000000       0.00000000       0.00000000
W       20.94885611      52.90416921       2.26527384  T       0.00000000       0.00000000       0.00000000
W       19.29689234      55.16010561       2.26527384  T       0.00000000       0.00000000       0.00000000
W       20.90180002      55.16426258      -0.00000000  T       0.00000000       0.00000000       0.00000000
W       19.25127598      57.42274358       0.00000000  T       0.00000000       0.00000000       0.00000000
W       20.85425316      57.42667620       2.26527384  T       0.00000000       0.00000000       0.00000000
W       22.40751437      59.69554273       2.26527384  T       0.00000000       0.00000000       0.00000000
W       24.00839083      59.69979813      -0.00000000  T       0.00000000       0.00000000       0.00000000
W       22.35791231      61.96290099       0.00000000  T       0.00000000       0.00000000       0.00000000
W       23.95650271      61.96735884       2.26527384  T       0.00000000       0.00000000       0.00000000
W       22.30890698      64.23278328       2.26527384  T       0.00000000       0.00000000       0.00000000
W       23.90529883      64.23767465      -0.00000000  T       0.00000000       0.00000000       0.00000000
W       22.26087069      66.50504239       0.00000000  T       0.00000000       0.00000000       0.00000000
W       23.85520434      66.51056938       2.26527384  T       0.00000000       0.00000000       0.00000000
W       22.21416187      68.77946480       2.26527384  T       0.00000000       0.00000000       0.00000000
W       23.80662663      68.78578848      -0.00000000  T       0.00000000       0.00000000       0.00000000
W       22.16911746      71.05577918       0.00000000  T       0.00000000       0.00000000       0.00000000
W       23.75994538      71.06301026       2.26527384  T       0.00000000       0.00000000       0.00000000
W       22.12604295      73.33366830       2.26527384  T       0.00000000       0.00000000       0.00000000
W       23.71549971      73.34186168      -0.00000000  T       0.00000000       0.00000000       0.00000000
W       22.08520116      75.61278406       0.00000000  T       0.00000000       0.00000000       0.00000000
W       23.67357414      75.62193802       2.26527384  T       0.00000000       0.00000000       0.00000000
W       22.04680154      77.89276512       2.26527384  T       0.00000000       0.00000000       0.00000000
W       23.63438592      77.90282540      -0.00000000  T       0.00000000       0.00000000       0.00000000
W       22.01099195      80.17325521       0.00000000  T       0.00000000       0.00000000       0.00000000
W       23.59807624      80.18412352       2.26527384  T       0.00000000       0.00000000       0.00000000
W       21.97785442      82.45392039       2.26527384  T       0.00000000       0.00000000       0.00000000
W       23.56470726      82.46546597      -0.00000000  T       0.00000000       0.00000000       0.00000000
W       23.53426555      84.74653581       2.26527384  T       0.00000000       0.00000000       0.00000000
W       24.58540985      28.15570879      -0.00000000  T       0.00000000       0.00000000       0.00000000
W       22.94435590      30.39322665       0.00000000  T       0.00000000       0.00000000       0.00000000
W       24.56111218      30.40625816       2.26527384  T       0.00000000       0.00000000       0.00000000
W       22.91699858      32.64324657       2.26527384  T       0.00000000       0.00000000       0.00000000
W       24.53403626      32.65594653      -0.00000000  T       0.00000000       0.00000000       0.00000000
W       22.88691603      34.89276828       0.00000000  T       0.00000000       0.00000000       0.00000000
W       24.50403034      34.90496335       2.26527384  T       0.00000000       0.00000000       0.00000000
W       22.85405543      37.14204591       2.26527384  T       0.00000000       0.00000000       0.00000000
W       24.47099992      37.15356672      -0.00000000  T       0.00000000       0.00000000       0.00000000
W       22.81842948      39.39138601       0.00000000  T       0.00000000       0.00000000       0.00000000
W       24.43492323      39.40208122       2.26527384  T       0.00000000       0.00000000       0.00000000
W       22.78012306      41.64113716       2.26527384  T       0.00000000       0.00000000       0.00000000
W       24.39586246      41.65088833      -0.00000000  T       0.00000000       0.00000000       0.00000000
W       22.73929420      43.89167426       0.00000000  T       0.00000000       0.00000000       0.00000000
W       24.35396808      43.90040927       2.26527384  T       0.00000000       0.00000000       0.00000000
W       22.69616910      46.14337897       2.26527384  T       0.00000000       0.00000000       0.00000000
W       24.30585057      46.14812055       0.00000000  F       0.00027895       0.00027443       0.00000000
W       22.65103197      48.39661889       0.00000000  T       0.00000000       0.00000000       0.00000000
W       24.25992196      48.40087371       2.26527384  F       0.00038600       0.00029200      -0.00000000
W       22.60108840      50.64983363       2.26527384  F       0.00009573       0.00005267       0.00000000
W       24.21082578      50.65632338      -0.00000000  F       0.00041460       0.00012065       0.00000000
W       22.55258469      52.90797544       0.00000000  F       0.00018466       0.00004148      -0.00000000
W       24.15957296      52.91307297       2.26527384  F       0.00012839       0.00016214      -0.00000000
W       22.50313255      55.16914380       2.26527384  F       0.00025900       0.00004382       0.00000000
W       24.10797881      55.17293545      -0.00000000  F       0.00051094       0.00011290      -0.00000000
W       22.45272034      57.43306579      -0.00000000  F       0.00022254       0.00010530       0.00000000
W       24.05676036      57.43478243       2.26527384  F       0.00054152       0.00008939      -0.00000000
W       25.60619465      59.70318839       2.26527384  F       0.00071769       0.00009142      -0.00000000
W       27.20660473      59.70695171      -0.00000000  F       0.00041513       0.00018744       0.00000000
W       25.55140452      61.97225402      -0.00000000  F       0.00109996      -0.00006183       0.00000000
W       27.14820483      61.97603068       2.26527384  F       0.00082981       0.00008166       0.00000000
W       25.49717205      64.24403886       2.26527384  F       0.00126973      -0.00013968      -0.00000000
W       27.09088858      64.24875340       0.00000000  F       0.00107054       0.00001807      -0.00000000
W       25.44384845      66.51836303       0.00000000  F       0.00124817      -0.00016500       0.00000000
W       27.03578678      66.52388374       2.26527384  F       0.00119813      -0.00012756       0.00000000
W       25.39826623      68.79260240       2.26527384  T       0.00000000       0.00000000       0.00000000
W       26.98308512      68.80271508       0.00000000  F       0.00156210      -0.00027988      -0.00000000
W       25.34985589      71.07083824       0.00000000  T       0.00000000       0.00000000       0.00000000
W       26.93202155      71.08303655       2.26527384  F       0.00145508      -0.00036669       0.00000000
W       25.30399434      73.35074971       2.26527384  T       0.00000000       0.00000000       0.00000000
W       26.89142697      73.36043061      -0.00000000  T       0.00000000       0.00000000       0.00000000
W       25.26098749      75.63186488       0.00000000  T       0.00000000       0.00000000       0.00000000
W       26.84735939      75.64266480       2.26527384  T       0.00000000       0.00000000       0.00000000
W       25.22105605      77.91370964       2.26527384  T       0.00000000       0.00000000       0.00000000
W       26.80675402      77.92551204      -0.00000000  T       0.00000000       0.00000000       0.00000000
W       25.18432683      80.19583573       0.00000000  T       0.00000000       0.00000000       0.00000000
W       26.76971222      80.20847320       2.26527384  T       0.00000000       0.00000000       0.00000000
W       25.15083218      82.47784438       2.26527384  T       0.00000000       0.00000000       0.00000000
W       26.73622337      82.49111916      -0.00000000  T       0.00000000       0.00000000       0.00000000
W       25.12051769      84.75940256       0.00000000  T       0.00000000       0.00000000       0.00000000
W       26.70617900      84.77310668       2.26527384  T       0.00000000       0.00000000       0.00000000
W       25.09325643      87.04025081       2.26527384  T       0.00000000       0.00000000       0.00000000
W       26.67939376      87.05418303      -0.00000000  T       0.00000000       0.00000000       0.00000000
W       26.65562932      89.33418114       2.26527384  T       0.00000000       0.00000000       0.00000000
W       26.22308802      25.91795899       0.00000000  T       0.00000000       0.00000000       0.00000000
W       27.83920528      25.93229670       2.26527384  T       0.00000000       0.00000000       0.00000000
W       26.20205402      28.16957489       2.26527384  T       0.00000000       0.00000000       0.00000000
W       27.81897265      28.18410678      -0.00000000  T       0.00000000       0.00000000       0.00000000
W       26.17832800      30.42004783       0.00000000  T       0.00000000       0.00000000       0.00000000
W       27.79596009      30.43461317       2.26527384  T       0.00000000       0.00000000       0.00000000
W       26.15166920      32.66947915       2.26527384  T       0.00000000       0.00000000       0.00000000
W       27.76987226      32.68388501      -0.00000000  T       0.00000000       0.00000000       0.00000000
W       26.12187280      34.91804272       0.00000000  T       0.00000000       0.00000000       0.00000000
W       27.74044217      34.93207059       2.26527384  T       0.00000000       0.00000000       0.00000000
W       26.08879163      37.16599352       2.26527384  T       0.00000000       0.00000000       0.00000000
W       27.70745748      37.17941198      -0.00000000  T       0.00000000       0.00000000       0.00000000
W       26.05235750      39.41366948       0.00000000  T       0.00000000       0.00000000       0.00000000
W       27.66564243      39.42011645       2.26527384  F       0.00040679       0.00040817       0.00000000
W       26.00684824      41.65621790       2.26527384  F       0.00034250       0.00026608       0.00000000
W       27.62633390      41.66802254      -0.00000000  F       0.00042662       0.00041840       0.00000000
W       25.96600229      43.90553237      -0.00000000  F       0.00050661       0.00051743      -0.00000000
W       27.58140837      43.91512731       2.26527384  F       0.00006082       0.00039649      -0.00000000
W       25.92039041      46.15670725       2.26527384  F       0.00029562       0.00039449      -0.00000000
W       27.53393555      46.16489592      -0.00000000  F      -0.00005753       0.00038130       0.00000000
W       25.87163051      48.40803416      -0.00000000  F       0.00026303       0.00033814       0.00000000
W       27.48475519      48.41606984       2.26527384  F      -0.00024346       0.00020243      -0.00000000
W       25.82022704      50.66213925       2.26527384  F      -0.00010980       0.00024195      -0.00000000
W       27.43198979      50.66837285       0.00000000  F      -0.00005003       0.00027445       0.00000000
W       25.76775029      52.91839392      -0.00000000  F       0.00002014       0.00019605       0.00000000
W       27.37734124      52.92323182       2.26527384  F      -0.00039295       0.00014394       0.00000000
W       25.71397308      55.17647319       2.26527384  F       0.00014259       0.00019976       0.00000000
W       27.32117023      55.18099858      -0.00000000  F       0.00009996       0.00032664      -0.00000000
W       25.65930495      57.43789998      -0.00000000  F       0.00041566       0.00009010       0.00000000
W       27.26360062      57.44203053       2.26527384  F       0.00045339       0.00030230      -0.00000000
W       28.80648985      59.71168737       2.26527384  F      -0.00038606       0.00036931      -0.00000000
W       30.40687512      59.71701655      -0.00000000  F      -0.00112618       0.00029030       0.00000000
W       28.74434261      61.98098430      -0.00000000  F       0.00040391       0.00029048      -0.00000000
W       30.34066803      61.98681940       2.26527384  F      -0.00006082       0.00010107      -0.00000000
W       28.68371514      64.25413743       2.26527384  F       0.00066310       0.00009728       0.00000000
W       30.27606888      64.26115392       0.00000000  F      -0.00044866       0.00036714      -0.00000000
W       28.62458023      66.53120980       0.00000000  F       0.00090386      -0.00011212      -0.00000000
W       30.21393497      66.53930720       2.26527384  F       0.00030052      -0.00009430       0.00000000
W       28.57048472      68.81118587       2.26527384  F       0.00104655      -0.00033794       0.00000000
W       30.15620656      68.82022592       0.00000000  F       0.00065207      -0.00011182      -0.00000000
W       28.51905423      71.09247152      -0.00000000  F       0.00113724      -0.00045604      -0.00000000
W       30.10145837      71.10429713       2.26527384  F       0.00064034      -0.00045462      -0.00000000
W       28.47093064      73.37677737       2.26527384  F       0.00133395      -0.00063340       0.00000000
W       30.05347422      73.38972513       0.00000000  F       0.00080356      -0.00086477      -0.00000000
W       28.42445272      75.66080746       0.00000000  F       0.00146420      -0.00082874      -0.00000000
W       30.00948866      75.67403062       2.26527384  F       0.00095034      -0.00067076       0.00000000
W       28.39142573      77.93833594       2.26527384  T       0.00000000       0.00000000       0.00000000
W       29.96794857      77.95954677      -0.00000000  F       0.00130477      -0.00076572      -0.00000000
W       28.35421039      80.22212062       0.00000000  T       0.00000000       0.00000000       0.00000000
W       29.93781349      80.23686341       2.26527384  T       0.00000000       0.00000000       0.00000000
W       28.32088835      82.50535161       2.26527384  T       0.00000000       0.00000000       0.00000000
W       29.90485226      82.52059705      -0.00000000  T       0.00000000       0.00000000       0.00000000
W       28.29128120      84.78768458       0.00000000  T       0.00000000       0.00000000       0.00000000
W       29.87587445      84.80316166       2.26527384  T       0.00000000       0.00000000       0.00000000
W       28.26513251      87.06888429       2.26527384  T       0.00000000       0.00000000       0.00000000
W       29.85053920      87.08435339      -0.00000000  T       0.00000000       0.00000000       0.00000000
W       28.24213846      89.34881301       0.00000000  T       0.00000000       0.00000000       0.00000000
W       29.82846926      89.36407598       2.26527384  T       0.00000000       0.00000000       0.00000000
W       28.22197482      91.62741310       2.26527384  T       0.00000000       0.00000000       0.00000000
W       29.80928137      91.64231586      -0.00000000  T       0.00000000       0.00000000       0.00000000
W       29.47220653      23.69358827       2.26527384  T       0.00000000       0.00000000       0.00000000
W       31.08734649      23.70833581      -0.00000000  T       0.00000000       0.00000000       0.00000000
W       29.45539941      25.94715253       0.00000000  T       0.00000000       0.00000000       0.00000000
W       31.07158534      25.96247544       2.26527384  T       0.00000000       0.00000000       0.00000000
W       29.43609597      28.19928720       2.26527384  T       0.00000000       0.00000000       0.00000000
W       31.05333871      28.21508109      -0.00000000  T       0.00000000       0.00000000       0.00000000
W       29.41394860      30.44995900       0.00000000  T       0.00000000       0.00000000       0.00000000
W       31.03221487      30.46607293       2.26527384  T       0.00000000       0.00000000       0.00000000
W       29.38860310      32.69919530       2.26527384  T       0.00000000       0.00000000       0.00000000
W       31.00779847      32.71542692      -0.00000000  T       0.00000000       0.00000000       0.00000000
W       29.35972146      34.94710694       0.00000000  T       0.00000000       0.00000000       0.00000000
W       30.97488058      34.95598401       2.26527384  F       0.00033305       0.00049311       0.00000000
W       29.32217207      37.18711298       2.26527384  F       0.00036633       0.00047024       0.00000000
W       30.94387772      37.20326747       0.00000000  F       0.00026870       0.00051935      -0.00000000
W       29.28636330      39.43411329       0.00000000  F       0.00035107       0.00044311      -0.00000000
W       30.90377057      39.44820814       2.26527384  F      -0.00008278       0.00058735       0.00000000
W       29.24224233      41.67970229       2.26527384  F      -0.00008818       0.00054900      -0.00000000
W       30.86328334      41.69362883      -0.00000000  F       0.00000349       0.00044856       0.00000000
W       29.19873670      43.92693627      -0.00000000  F      -0.00009653       0.00039909       0.00000000
W       30.81711213      43.93839849       2.26527384  F      -0.00024541       0.00014032      -0.00000000
W       29.15018033      46.17423249       2.26527384  F      -0.00020232       0.00031351      -0.00000000
W       30.76772335      46.18490149      -0.00000000  F      -0.00015306       0.00018982       0.00000000
W       29.09903575      48.42363864      -0.00000000  F      -0.00022039       0.00026149       0.00000000
W       30.71465321      48.43266206       2.26527384  F      -0.00037297       0.00023687      -0.00000000
W       29.04453111      50.67520147       2.26527384  F      -0.00027293       0.00022655       0.00000000
W       30.65819949      50.68272613       0.00000000  F      -0.00040561       0.00006435      -0.00000000
W       28.98759431      52.92905858       0.00000000  F      -0.00039298       0.00030523      -0.00000000
W       30.59860605      52.93555893       2.26527384  F      -0.00041803       0.00030658       0.00000000
W       28.92855136      55.18605455       2.26527384  F      -0.00050731       0.00033428      -0.00000000
W       30.53668981      55.19177859      -0.00000000  F      -0.00109281       0.00012554       0.00000000
W       28.86767761      57.44677322      -0.00000000  F       0.00013003       0.00024923       0.00000000
W       30.47210460      57.45209077       2.26527384  F      -0.00013693       0.00000907      -0.00000000
W       32.00655765      59.72300003       2.26527384  F      -0.00065150       0.00026926       0.00000000
W       33.60619040      59.72965933      -0.00000000  F      -0.00033287       0.00004837      -0.00000000
W       31.93593150      61.99350690      -0.00000000  F       0.00013698      -0.00000601      -0.00000000
W       33.53045069      62.00096446       2.26527384  F       0.00082970      -0.00031681       0.00000000
W       31.86715031      64.26896067       2.26527384  F      -0.00015449       0.00014189       0.00000000
W       33.45706184      64.27774150       0.00000000  F      -0.00030350       0.00024799       0.00000000
W       31.80143445      66.54860838       0.00000000  F      -0.00011378       0.00001748      -0.00000000
W       33.38737698      66.55925327       2.26527384  F       0.00091182      -0.00048943      -0.00000000
W       31.74074803      68.83177217       2.26527384  F       0.00016731       0.00003595      -0.00000000
W       33.32377792      68.84393491      -0.00000000  F       0.00008136       0.00024950       0.00000000
W       31.68472711      71.11685600      -0.00000000  F       0.00004563      -0.00025404       0.00000000
W       33.26581634      71.13073920       2.26527384  F       0.00002085      -0.00043140       0.00000000
W       31.63456654      73.40261564       2.26527384  F       0.00037276      -0.00055890       0.00000000
W       33.21465474      73.41853899       0.00000000  F      -0.00023482      -0.00021550      -0.00000000
W       31.58805458      75.68964008      -0.00000000  F       0.00050469      -0.00083671      -0.00000000
W       33.16950234      75.70540322       2.26527384  F      -0.00008219      -0.00066907       0.00000000