519
Lattice="92.6266093157392 0.0 0.0 0.0 80.21699673384649 0.0 0.0 0.0 2.7290376485615093" Properties=species:S:1:pos:R:3:fix_mask:L:1:forces:R:3 energy=-5522.42298342538 pbc="T T T"
Mo      20.54118582      28.22432516      -0.27352421  T       0.00000000       0.00000000       0.00000000
Mo      19.26003910      30.45204303       0.59965056  T       0.00000000       0.00000000       0.00000000
Mo      17.98078617      32.68032816      -1.25550439  T       0.00000000       0.00000000       0.00000000
Mo      20.55160600      32.68028303      -0.33608674  T       0.00000000       0.00000000       0.00000000
Mo      19.27410519      34.90878928       0.53573474  T       0.00000000       0.00000000       0.00000000
Mo      17.99752404      37.13733413      -1.31977786  T       0.00000000       0.00000000       0.00000000
Mo      20.56927956      37.13730408      -0.40587314  T       0.00000000       0.00000000       0.00000000
Mo      16.72102594      39.36573829      -0.44406658  T       0.00000000       0.00000000       0.00000000
Mo      19.29369398      39.36573637       0.46659501  T       0.00000000       0.00000000       0.00000000
Mo      18.01743335      41.59395485       1.34204856  T       0.00000000       0.00000000       0.00000000
Mo      20.59102898      41.59394630       2.24958391  T       0.00000000       0.00000000       0.00000000
Mo      16.73994651      43.82201961       2.22068367  T       0.00000000       0.00000000       0.00000000
Mo      19.31425177      43.82198146       3.12555470  T       0.00000000       0.00000000       0.00000000
Mo      18.03571326      46.04997652       1.27625005  T       0.00000000       0.00000000       0.00000000
Mo      20.61066622      46.04991255       2.17784035  T       0.00000000       0.00000000       0.00000000
Mo      19.33050316      48.27801581       3.05937324  T       0.00000000       0.00000000       0.00000000
Mo      20.62360846      50.50644771       2.11244074  T       0.00000000       0.00000000       0.00000000
Mo      19.34002290      52.73514341       2.99988662  T       0.00000000       0.00000000       0.00000000
Mo      20.62934987      54.96485108       2.05495244  T       0.00000000       0.00000000       0.00000000
Mo      25.68754679      19.32531139      -1.03653242  T       0.00000000       0.00000000       0.00000000
Mo      28.26361905      19.33046226      -0.09968773  T       0.00000000       0.00000000       0.00000000
Mo      24.39806838      21.54795398      -0.16302193  T       0.00000000       0.00000000       0.00000000
Mo      26.97295014      21.55166935       0.77153859  T       0.00000000       0.00000000       0.00000000
Mo      25.68381283      23.77438278      -1.08720868  T       0.00000000       0.00000000       0.00000000
Mo      28.25833211      23.77785617      -0.15154025  T       0.00000000       0.00000000       0.00000000
Mo      23.11026940      23.77202667       0.70994768  T       0.00000000       0.00000000       0.00000000
Mo      21.82457318      25.99754557      -1.14633940  T       0.00000000       0.00000000       0.00000000
Mo      24.39685756      25.99880435      -0.21739672  T       0.00000000       0.00000000       0.00000000
Mo      26.96980750      26.00078239       0.71497157  T       0.00000000       0.00000000       0.00000000
Mo      25.68412577      28.22572249      -1.14792099  T       0.00000000       0.00000000       0.00000000
Mo      28.25630144      28.22723521      -0.21532824  T       0.00000000       0.00000000       0.00000000
Mo      23.11251167      28.22483856       0.65231870  T       0.00000000       0.00000000       0.00000000
Mo      21.83086151      30.45215042      -1.20674005  T       0.00000000       0.00000000       0.00000000
Mo      24.40164323      30.45239501      -0.28167149  T       0.00000000       0.00000000       0.00000000
Mo      26.97251713      30.45289496       0.64653202  T       0.00000000       0.00000000       0.00000000
Mo      25.69254583      32.68029548      -1.22019051  T       0.00000000       0.00000000       0.00000000
Mo      28.25733515      32.67803796      -0.29178202  F       0.00000034       0.00000009      -0.00000002
Mo      23.12219042      32.68026111       0.58517716  T       0.00000000       0.00000000       0.00000000
Mo      21.84508015      34.90872349      -1.27581064  T       0.00000000       0.00000000       0.00000000
Mo      24.41572832      34.90865004      -0.35668170  T       0.00000000       0.00000000       0.00000000
Mo      26.97902943      34.90658857       0.56548224  F       0.00000041      -0.00000015       0.00000011
Mo      25.71201216      37.13721503      -1.30416867  T       0.00000000       0.00000000       0.00000000
Mo      28.27635762      37.13443287      -0.38495036  F      -0.00000013      -0.00000040       0.00000017
Mo      23.14079990      37.13726546       0.50890832  T       0.00000000       0.00000000       0.00000000
Mo      21.86630323      39.36573384      -1.35158354  T       0.00000000       0.00000000       0.00000000
Mo      24.43883405      39.36573042      -0.44046055  T       0.00000000       0.00000000       0.00000000
Mo      27.00578748      39.36482507       0.47183611  F       0.00000037      -0.00000002      -0.00000007
Mo      25.73866180      41.59391958       1.33409825  T       0.00000000       0.00000000       0.00000000
Mo      28.30671945      41.59286554       2.24074139  F      -0.00000024      -0.00000021       0.00000013
Mo      23.16475657      41.59393499       3.15666654  T       0.00000000       0.00000000       0.00000000
Mo      21.88879787      43.82193383       1.30044559  T       0.00000000       0.00000000       0.00000000
Mo      24.46365118      43.82187395       2.20312707  T       0.00000000       0.00000000       0.00000000
Mo      27.03374522      43.82162013       3.10436814  F       0.00000008      -0.00000035       0.00000010
Mo      25.76149224      46.04978762       1.24668259  T       0.00000000       0.00000000       0.00000000
Mo      28.33218140      46.04976635       2.14126000  F      -0.00000029      -0.00000010       0.00000021
Mo      23.18591134      46.04984606       3.07783426  T       0.00000000       0.00000000       0.00000000
Mo      21.90573269      48.27801398       1.22850512  T       0.00000000       0.00000000       0.00000000
Mo      24.48114206      48.27807762       2.12442311  T       0.00000000       0.00000000       0.00000000
Mo      27.05666715      48.27827799       3.01738640  T       0.00000000       0.00000000       0.00000000
Mo      25.77347011      50.50723753       1.16999307  T       0.00000000       0.00000000       0.00000000
Mo      28.34800645      50.50820861       2.05811614  T       0.00000000       0.00000000       0.00000000
Mo      23.19859515      50.50671779       3.00717091  T       0.00000000       0.00000000       0.00000000
Mo      21.91450096      52.73566666       1.16491605  T       0.00000000       0.00000000       0.00000000
Mo      24.48870103      52.73653918       2.05627796  T       0.00000000       0.00000000       0.00000000
Mo      27.06238451      52.73798729       2.94421160  T       0.00000000       0.00000000       0.00000000
Mo      25.77592669      54.96793306       1.10529926  T       0.00000000       0.00000000       0.00000000
Mo      28.34800391      54.97080228       1.98955273  T       0.00000000       0.00000000       0.00000000
Mo      23.20294061      54.96606571       2.94619830  T       0.00000000       0.00000000       0.00000000
Mo      21.91656623      57.19571897       1.10996418  T       0.00000000       0.00000000       0.00000000
Mo      24.48901025      57.19793082       1.99853568  T       0.00000000       0.00000000       0.00000000
Mo      27.06057910      57.20113882       2.88369165  T       0.00000000       0.00000000       0.00000000
Mo      25.77307714      59.43134784       1.05130683  T       0.00000000       0.00000000       0.00000000
Mo      28.34329062      59.43607359       1.93386011  T       0.00000000       0.00000000       0.00000000
Mo      27.05569908      61.66615599       2.83394897  T       0.00000000       0.00000000       0.00000000
Mo      28.33750040      63.90197165       1.88883807  T       0.00000000       0.00000000       0.00000000
Mo      34.71584843      12.67913483       0.94769217  T       0.00000000       0.00000000       0.00000000
Mo      33.42467817      14.89904043      -0.90421968  T       0.00000000       0.00000000       0.00000000
Mo      36.00280837      14.90826352       0.04154607  T       0.00000000       0.00000000       0.00000000
Mo      30.84675922      14.89056446       0.88201213  T       0.00000000       0.00000000       0.00000000
Mo      29.55510134      17.11029663      -0.97237215  T       0.00000000       0.00000000       0.00000000
Mo      32.13286298      17.11819108      -0.03018646  T       0.00000000       0.00000000       0.00000000
Mo      34.71123773      17.12743856       0.91571120  T       0.00000000       0.00000000       0.00000000
Mo      33.41889362      19.34569926      -0.94288735  T       0.00000000       0.00000000       0.00000000
Mo      35.99781463      19.35587064       0.00673749  T       0.00000000       0.00000000       0.00000000
Mo      30.84074621      19.33719509       0.84106248  T       0.00000000       0.00000000       0.00000000
Mo      29.54895128      21.55683059      -1.01897051  T       0.00000000       0.00000000       0.00000000
Mo      32.12624157      21.56385348      -0.07575905  T       0.00000000       0.00000000       0.00000000
Mo      34.70482835      21.57305260       0.87278122  T       0.00000000       0.00000000       0.00000000
Mo      33.41155044      23.79020852      -0.99421166  T       0.00000000       0.00000000       0.00000000
Mo      35.98805676      23.79703101      -0.03850495  F      -0.00000057      -0.00000011      -0.00000001
Mo      30.83414789      23.78293432       0.78879842  T       0.00000000       0.00000000       0.00000000
Mo      29.54377768      26.00388909      -1.07735957  T       0.00000000       0.00000000       0.00000000
Mo      32.11485492      26.00413623      -0.13299792  F      -0.00000008      -0.00000001       0.00000029
Mo      34.69248497      26.01299762       0.81861855  F      -0.00000013       0.00000015       0.00000009
Mo      33.39852583      28.22992336      -1.05791552  F      -0.00000006      -0.00000055       0.00000013
Mo      35.97584230      28.23817778      -0.10156629  F       0.00000004       0.00000019       0.00000003
Mo      30.82538199      28.22635578       0.72454308  F       0.00000024       0.00000013       0.00000020
Mo      29.53926386      30.45100688      -1.14812551  F       0.00000011      -0.00000014      -0.00000020
Mo      32.10937038      30.45138331      -0.20756947  F      -0.00000039      -0.00000056      -0.00000026
Mo      34.68239376      30.45497434       0.74160395  F      -0.00000005      -0.00000023       0.00000047
Mo      33.39513690      32.67693456      -1.14639572  F       0.00000024       0.00000018      -0.00000000
Mo      35.96656270      32.67948086      -0.19529970  F      -0.00000015       0.00000015       0.00000012
Mo      30.82558808      32.67672420       0.64198766  F      -0.00000061      -0.00000035       0.00000015
Mo      29.54781358      34.90469989      -1.23690182  F      -0.00000027      -0.00000020       0.00000004
Mo      32.11592377      34.90352726      -0.30543331  F      -0.00000012      -0.00000029      -0.00000018
Mo      34.68368246      34.90307802       0.63347108  F      -0.00000005      -0.00000043      -0.00000025
Mo      33.41142087      37.13177708      -1.26522349  F       0.00000029      -0.00000015      -0.00000007
Mo      35.97762334      37.13091019      -0.33204864  F      -0.00000009      -0.00000004       0.00000007
Mo      30.84418356      37.13282467       0.53749913  F       0.00000018      -0.00000037      -0.00000010
Mo      29.57557958      39.36299328      -1.34354771  F       0.00000026      -0.00000031      -0.00000014
Mo      32.14486150      39.36211026      -0.42898792  F       0.00000008      -0.00000017      -0.00000000
Mo      34.71352263      39.36168942       0.48700765  F      -0.00000004      -0.00000059      -0.00000034
Mo      33.44947211      41.59231966       1.31966105  F      -0.00000005      -0.00000026       0.00000004
Mo      36.02099962      41.59372055       2.21800902  F      -0.00000018       0.00000023      -0.00000014
Mo      30.87800152      41.59217534       3.14600557  F       0.00000028      -0.00000016      -0.00000015
Mo      29.60699731      43.82146103       1.27409763  F       0.00000017      -0.00000024       0.00000023
Mo      32.18032673      43.82208997       2.16839362  F      -0.00000020      -0.00000007       0.00000002
Mo      34.75337577      43.82436800       3.05543471  F       0.00000011      -0.00000031       0.00000011
Mo      33.47904633      46.05423677       1.18401938  F      -0.00000012       0.00000028      -0.00000008
Mo      36.05108418      46.06031987       2.05415076  F      -0.00000029       0.00000017      -0.00000033
Mo      30.90587870      46.05122143       3.03105626  F      -0.00000040      -0.00000028       0.00000004
Mo      29.62738573      48.28004388       1.17574298  F      -0.00000006      -0.00000034      -0.00000034
Mo      32.19989451      48.28374970       2.05611896  F       0.00000003      -0.00000008      -0.00000021
Mo      34.77095160      48.29028388       2.92624696  F      -0.00000033      -0.00000039      -0.00000012
Mo      33.48775728      50.51982626       1.08118109  F      -0.00000018       0.00000022      -0.00000002
Mo      36.05596219      50.53035113       1.94188243  F      -0.00000009       0.00000002      -0.00000003
Mo      30.91780144      50.51326400       2.93845318  F       0.00000031      -0.00000004      -0.00000022
Mo      29.63518777      52.74038925       1.09869792  T       0.00000000       0.00000000       0.00000000
Mo      32.20310775      52.74920964       1.97285142  F      -0.00000008      -0.00000014       0.00000013
Mo      34.77057298      52.75883679       2.83821439  F       0.00000008      -0.00000016      -0.00000032
Mo      33.48458293      54.98704028       1.00978704  F      -0.00000007       0.00000027      -0.00000027
Mo      36.05145219      54.99848665       1.87193378  F       0.00000052      -0.00000002      -0.00000021
Mo      30.91878478      54.97518963       2.86892184  T       0.00000000       0.00000000       0.00000000
Mo      29.63099345      57.20575844       1.03564243  T       0.00000000       0.00000000       0.00000000
Mo      32.19999008      57.21229777       1.91159926  T       0.00000000       0.00000000       0.00000000
Mo      34.76744387      57.22123930       2.78166486  T       0.00000000       0.00000000       0.00000000
Mo      33.48016247      59.45079345       0.95677184  T       0.00000000       0.00000000       0.00000000
Mo      36.04697548      59.46113108       1.82523935  T       0.00000000       0.00000000       0.00000000
Mo      30.91233267      59.44245282       2.81221974  T       0.00000000       0.00000000       0.00000000
Mo      29.62484597      61.67232631       0.98540291  T       0.00000000       0.00000000       0.00000000
Mo      32.19302445      61.68011759       1.86196451  T       0.00000000       0.00000000       0.00000000
Mo      34.76040881      61.68951331       2.73437588  T       0.00000000       0.00000000       0.00000000
Mo      33.47385677      63.91787447       0.91456544  T       0.00000000       0.00000000       0.00000000
Mo      36.04138140      63.92746307       1.78689542  T       0.00000000       0.00000000       0.00000000
Mo      30.90599555      63.90926642       2.76793432  T       0.00000000       0.00000000       0.00000000
Mo      32.18731597      66.14621910       1.82386258  T       0.00000000       0.00000000       0.00000000
Mo      34.75529939      66.15498567       2.69946707  T       0.00000000       0.00000000       0.00000000
Mo      43.73609154      10.47694304       0.17262889  T       0.00000000       0.00000000       0.00000000
Mo      37.29347311      12.68772207      -0.83640976  T       0.00000000       0.00000000       0.00000000
Mo      39.87074759      12.69569490       0.11033077  T       0.00000000       0.00000000       0.00000000
Mo      42.44751838      12.70221301       1.05837421  T       0.00000000       0.00000000       0.00000000
Mo      41.15832982      14.92590284      -0.78874680  T       0.00000000       0.00000000       0.00000000
Mo      43.73525755      14.93227180       0.16301941  T       0.00000000       0.00000000       0.00000000
Mo      38.58079716      14.91754129       0.98990419  T       0.00000000       0.00000000       0.00000000
Mo      37.28985747      17.13755945      -0.86388140  T       0.00000000       0.00000000       0.00000000
Mo      39.86826261      17.14761631       0.08861065  T       0.00000000       0.00000000       0.00000000
Mo      42.44607072      17.15629861       1.04338465  T       0.00000000       0.00000000       0.00000000
Mo      41.15590462      19.37799613      -0.81077213  T       0.00000000       0.00000000       0.00000000
Mo      43.73400513      19.38683288       0.14936509  T       0.00000000       0.00000000       0.00000000
Mo      38.57702209      19.36707234       0.96068921  T       0.00000000       0.00000000       0.00000000
Mo      37.28441516      21.58434953      -0.90205116  T       0.00000000       0.00000000       0.00000000
Mo      39.86194075      21.59358788       0.06041316  F      -0.00000003      -0.00000006      -0.00000027
Mo      42.44108890      21.60509883       1.02581666  F      -0.00000051      -0.00000020      -0.00000016
Mo      41.14850836      23.82273796      -0.83611464  F      -0.00000007       0.00000018      -0.00000029
Mo      43.72922163      23.83388697       0.13849470  F      -0.00000020       0.00000018      -0.00000020
Mo      38.56806403      23.80991442       0.92369004  F       0.00000003      -0.00000005      -0.00000017
Mo      37.27194408      26.02396399      -0.94982079  F      -0.00000031       0.00000004       0.00000002
Mo      39.85358554      26.03778345       0.02094739  F      -0.00000000       0.00000048       0.00000018
Mo      42.43603496      26.05155585       1.00107917  F      -0.00000054      -0.00000006      -0.00000002
Mo      41.13996595      28.26526404      -0.87935726  F      -0.00000019      -0.00000019       0.00000015
Mo      43.72500341      28.27911708       0.11656018  F      -0.00000051       0.00000023       0.00000011
Mo      38.55643672      28.25009546       0.86697288  F      -0.00000020       0.00000029       0.00000034
Mo      37.25924563      30.46260420      -1.02573313  F       0.00000027      -0.00000050       0.00000009
Mo      39.84096092      30.47541393      -0.04677576  F      -0.00000030       0.00000007       0.00000026
Mo      42.42742539      30.49200630       0.95371362  F      -0.00000017       0.00000011       0.00000033
Mo      41.12492045      32.69945732      -0.96332675  F       0.00000001       0.00000004      -0.00000000
Mo      43.71607114      32.71709438       0.06634696  F      -0.00000014       0.00000044      -0.00000007
Mo      38.54216760      32.68604284       0.77226535  F      -0.00000029       0.00000006       0.00000007
Mo      37.25216219      34.90399985      -1.14440457  F      -0.00000022      -0.00000005       0.00000005
Mo      39.82478601      34.90844534      -0.17143111  F      -0.00000051       0.00000017      -0.00000014
Mo      42.40733886      34.92163825       0.84279090  F       0.00000021       0.00000040      -0.00000002
Mo      41.11038716      37.13190277      -1.14227491  F      -0.00000022       0.00000033      -0.00000031
Mo      43.68773459      37.14200514      -0.10230977  F       0.00000021      -0.00000039       0.00000013
Mo      38.54282288      37.13038499       0.61378523  F      -0.00000038      -0.00000019      -0.00000026
Mo      37.28091562      39.36147292      -1.32325351  F       0.00000028       0.00000015      -0.00000017
Mo      39.84604701      39.36095084      -0.39818417  F      -0.00000016       0.00000019      -0.00000019
Mo      42.40857980      39.35963431       0.54891067  F      -0.00000064       0.00000002      -0.00000019
Mo      41.15726438      41.60371594       1.24855840  F       0.00000014      -0.00000027      -0.00000019
Mo      43.71222945      41.63755939       2.05125420  F      -0.00000002       0.00000056      -0.00000050
Mo      38.59188475      41.59702100       3.10775212  F       0.00000031      -0.00000042      -0.00000016
Mo      37.32560005      43.82977160       1.20101966  F      -0.00000013      -0.00000047      -0.00000041
Mo      39.89548685      43.84108403       2.05231157  F       0.00000010      -0.00000012      -0.00000002
Mo      42.46486002      43.86685927       2.85432924  F      -0.00000035      -0.00000004       0.00000005
Mo      41.18843126      46.09137352       0.99651215  F       0.00000020       0.00000003       0.00000015
Mo      43.75269242      46.12357928       1.77070322  F      -0.00000027       0.00000009       0.00000025
Mo      38.62085744      46.07168446       2.90533410  F      -0.00000001      -0.00000012      -0.00000017
Mo      37.33992650      48.30139983       1.05283302  F       0.00000044      -0.00000004      -0.00000005
Mo      39.90618609      48.31893751       1.88812968  F      -0.00000030      -0.00000022      -0.00000013
Mo      42.46984661      48.34427540       2.69787704  F      -0.00000010      -0.00000006       0.00000009
Mo      41.18623310      50.56706036       0.88980572  F       0.00000030       0.00000014      -0.00000001
Mo      43.75043014      50.58837609       1.70623943  F      -0.00000038       0.00000036      -0.00000015
Mo      38.62206011      50.54609514       2.78853553  F       0.00000020      -0.00000027      -0.00000018
Mo      37.33700379      52.77257845       0.96435384  F       0.00000032      -0.00000027       0.00000004
Mo      39.90191673      52.79083122       1.80805216  F      -0.00000010      -0.00000050      -0.00000013
Mo      42.46681162      52.80979127       2.64181751  F       0.00000001      -0.00000016       0.00000002
Mo      41.18259117      55.03201473       0.84149302  F       0.00000005      -0.00000001       0.00000033
Mo      43.74889501      55.04622821       1.68187898  F       0.00000029       0.00000003       0.00000009
Mo      38.61697320      55.01490665       2.72494059  F       0.00000031      -0.00000018       0.00000008
Mo      37.33093171      57.23904596       0.91188787  F      -0.00000061      -0.00000024      -0.00000019
Mo      39.89760443      57.25440839       1.76640521  F       0.00000034      -0.00000020       0.00000007
Mo      42.46395333      57.26926541       2.61574420  F       0.00000012       0.00000023       0.00000030
Mo      41.17795290      59.49252905       0.81550254  F      -0.00000002       0.00000051      -0.00000022
Mo      43.74668091      59.50084751       1.67045339  F      -0.00000012       0.00000002      -0.00000024
Mo      38.61328064      59.47291321       2.68869785  T       0.00000000       0.00000000       0.00000000
Mo      37.32738371      61.70008936       0.87370096  T       0.00000000       0.00000000       0.00000000
Mo      39.89448429      61.71086413       1.73853250  T       0.00000000       0.00000000       0.00000000
Mo      42.46219878      61.72035240       2.60070457  T       0.00000000       0.00000000       0.00000000
Mo      41.17701971      63.94634953       0.79425966  T       0.00000000       0.00000000       0.00000000
Mo      43.74573101      63.95331938       1.65971381  T       0.00000000       0.00000000       0.00000000
Mo      38.60897287      63.93731466       2.65626250  T       0.00000000       0.00000000       0.00000000
Mo      37.32331250      66.16403906       0.84351516  T       0.00000000       0.00000000       0.00000000
Mo      39.89166577      66.17257482       1.71454980  T       0.00000000       0.00000000       0.00000000
Mo      42.46056085      66.17963605       2.58410590  T       0.00000000       0.00000000       0.00000000
Mo      41.17524037      68.40599815       0.77706115  T       0.00000000       0.00000000       0.00000000
Mo      43.74480208      68.41116080       1.64915460  T       0.00000000       0.00000000       0.00000000
Mo      38.60616747      68.39902414       2.63309211  T       0.00000000       0.00000000       0.00000000
Mo      48.88764139      10.47947063      -0.66394748  T       0.00000000       0.00000000       0.00000000
Mo      51.46347915      10.47694304       0.28221072  T       0.00000000       0.00000000       0.00000000
Mo      46.31192930      10.47947063       1.11878709  T       0.00000000       0.00000000       0.00000000
Mo      45.02380115      12.70649468      -0.72181061  T       0.00000000       0.00000000       0.00000000
Mo      47.59978534      12.70798809       0.22741980  T       0.00000000       0.00000000       0.00000000
Mo      50.17576954      12.70649468       1.17665022  T       0.00000000       0.00000000       0.00000000
Mo      48.88789511      14.93572275      -0.66071234  T       0.00000000       0.00000000       0.00000000
Mo      51.46431314      14.93227180       0.29182020  T       0.00000000       0.00000000       0.00000000
Mo      46.31167557      14.93572275       1.11555195  T       0.00000000       0.00000000       0.00000000
Mo      45.02316695      17.16222011      -0.72944749  T       0.00000000       0.00000000       0.00000000
Mo      47.59978534      17.16432506       0.22741980  T       0.00000000       0.00000000       0.00000000
Mo      50.17640374      17.16222011       1.18428709  T       0.00000000       0.00000000       0.00000000
Mo      48.88826642      19.39180235      -0.65609294  T       0.00000000       0.00000000       0.00000000
Mo      51.46556556      19.38683288       0.30547452  T       0.00000000       0.00000000       0.00000000
Mo      46.31130427      19.39180235       1.11093254  T       0.00000000       0.00000000       0.00000000
Mo      45.02043901      21.61305085      -0.73530537  F      -0.00000037      -0.00000004      -0.00000041
Mo      47.59984639      21.61548445       0.23372926  F      -0.00000014       0.00000002      -0.00000020
Mo      50.17956109      21.61144088       1.20221528  F      -0.00000027       0.00000007       0.00000009
Mo      48.89112591      23.83781182      -0.63499912  F      -0.00000029      -0.00000023       0.00000013
Mo      51.47251746      23.82963909       0.34019703  F      -0.00000041       0.00000018      -0.00000007
Mo      46.31003661      23.83952476       1.11613315  F      -0.00000024      -0.00000026       0.00000007
Mo      45.01878688      26.06118529      -0.74086739  F      -0.00000006      -0.00000065       0.00000004
Mo      47.60173818      26.06288692       0.24891154  F      -0.00000038      -0.00000027       0.00000022
Mo      50.18491433      26.05624840       1.23646738  F       0.00000016      -0.00000010      -0.00000033
Mo      48.89630960      28.28204207      -0.60367950  F      -0.00000024       0.00000007      -0.00000007
Mo      51.48184468      28.27039555       0.39298938  F       0.00000000      -0.00000019       0.00000005
Mo      46.31057255      28.28574423       1.12081579  F      -0.00000013      -0.00000040       0.00000013
Mo      45.01624697      30.50426415      -0.75545564  F      -0.00000043       0.00000001       0.00000014
Mo      47.60571280      30.50567836       0.27253438  F      -0.00000024       0.00000002      -0.00000029
Mo      50.19486572      30.49575704       1.29317495  F      -0.00000022      -0.00000002       0.00000006
Mo      48.90678387      32.71973328      -0.54456053  F      -0.00000021      -0.00000042      -0.00000014
Mo      51.49866119      32.70347766       0.48670178  F       0.00000044      -0.00000020       0.00000006
Mo      46.31131668      32.72439652       1.12497562  F       0.00000029       0.00000011       0.00000005
Mo      45.00469428      34.93560833      -0.80119544  F      -0.00000046       0.00000042       0.00000008
Mo      47.61854371      34.93704536       0.32593109  F       0.00000052       0.00000002      -0.00000007
Mo      50.21682818      34.92488728       1.41392779  F      -0.00000005      -0.00000034       0.00000001
Mo      48.93704478      37.14461986      -0.36554340  F       0.00000031      -0.00000001       0.00000046
Mo      51.51577988      37.13485840       0.67731179  F       0.00000024       0.00000014      -0.00000006
Mo      46.31143599      37.13151279       1.12733672  F      -0.00000010       0.00000038       0.00000022
Mo      44.98665573      39.37007517      -1.14012134  F       0.00000006       0.00000033       0.00000022
Mo      47.63907689      39.37258831       0.67927647  F      -0.00000005       0.00000016      -0.00000015
Mo      50.21879314      39.36225674       1.72219317  F       0.00000012       0.00000044      -0.00000016
Mo      48.91820594      41.64181211       0.23220837  F      -0.00000023       0.00000020       0.00000001
Mo      51.47257989      41.60738277       1.03153477  F       0.00000028      -0.00000056       0.00000014
Mo      46.31507152      41.66817423       2.50716151  F      -0.00000038       0.00000027      -0.00000021
Mo      45.03495977      43.90552967       0.82145039  F      -0.00000031      -0.00000056      -0.00000011
Mo      47.59582156      43.90767561       1.46793236  F       0.00000021      -0.00000028      -0.00000011
Mo      50.16629601      43.87120438       2.16242428  F      -0.00000028      -0.00000054      -0.00000023
Mo      48.87891390      46.12672034       0.52260681  F       0.00000000      -0.00000015       0.00000042
Mo      51.44318556      46.09612833       1.29566327  F      -0.00000016       0.00000038       0.00000003