251
Lattice="16.567226886616943 0.0 0.0 0.0 16.567226886616943 0.0 0.0 0.0 16.567226886616943" Properties=species:S:1:pos:R:3:momenta:R:3 energy=-2521.449766380477 stress="1.1974577608856102e-08 -2.1412147565331492e-19 -4.683207317883061e-18 -2.1412147565331492e-19 1.1974577607666569e-08 -4.010517789018201e-18 -4.683207317883061e-18 -4.010517789018201e-18 1.1974577610022032e-08" free_energy=-2521.449766380477 pbc="T T T"
Nb       1.43235252       1.87956332       1.51201239      -2.27513436       0.62318185       0.49021721
Nb      -0.22919080       0.22655025       3.16395675      -2.46530194      -0.55783465      -1.21222144
Nb       1.42460819       1.89471625       4.82206383      -3.74332233       1.42708307      -0.56110101
Nb      -0.24811782       0.24547670       6.46806970      -3.27794892       4.58446936      -1.64197608
Nb       1.41238040       1.92165552       8.16096892      -0.21199745      -0.37275954       1.74639987
Nb       1.26103410      -1.26367608       8.31231393       2.44293618      -2.75055067       0.60620727
Nb       1.43788053       1.89319992      11.46918845       1.89214772       2.11721748       3.10914931
Nb      -0.23134629       0.22870680      13.13101160      -1.42648363       4.88084452      -1.19114608
Nb       1.43543740       1.87978885      14.77256899      -0.44845483      -0.34027979       1.99843488
Nb      -0.21714035       3.53129207      -0.14208084       3.10422720       1.70494092       0.48041358
Nb       1.43233226       5.18714074       1.51112329      -2.11682615       2.57217219      -2.21828814
Nb      -0.22336945       3.53496832       3.16923180      -1.86300027       0.49898652      -0.32048567
Nb       1.42978348       5.18917995       4.82701326       2.52830832      -0.74818244       0.31607840
Nb      -0.23008139       3.54563529       6.48216199      -0.47534859      -0.31990919       2.34716168
Nb       1.42998549       5.19817285       8.14336394       0.05515448      -2.85853221       0.91561014
Nb      -0.23134647       3.55502273       9.80469599       0.64334769      -1.25429491       2.93610093
Nb       1.43543752       5.19658034      11.45577783      -2.06457998      -0.23274464      -2.60054486
Nb      -0.21548519       3.53769879      13.11368752       0.78501980       2.89337325      -0.98035479
Nb       1.43735288       5.18995315      14.76594181       0.89370679      -0.57369310      -1.42979167
Nb      -0.21554783       6.84370578      -0.14753239       0.69752035      -1.37641201      -1.32912307
Nb       1.41718914       8.50296579       1.51172816      -1.79431346       0.16874844       0.98464678
Nb      -0.22453862       6.84350203       3.16881782       0.21349360      -0.33857495      -0.65123477
Nb       1.41101843       8.48504729       4.82874051       0.15083250      -0.66099181       2.84982795
Nb      -0.22657838       6.84605153       6.48470750      -2.16094003      -4.29775977       4.43756589
Nb       1.42985333       8.49292363       8.14349597      -2.40822660      -0.40801916      -2.45263997
Nb      -0.22376684       6.85107264       9.79711609      -1.26401108       1.45471850      -3.00334780
Nb       1.43235258       8.50325072      11.45555257       0.75450070       0.73938281      -1.49838134
Nb      -0.21714047       6.84915681      13.10728169      -0.08822717       0.89778250       0.44523655
Nb       1.43233243       8.50236136      14.76312928      -4.78782533      -1.26950177       0.04192796
Nb      -0.22453927      10.16005486      -0.14773573      -1.02888858      -1.69469565      -2.06995788
Nb       1.41101728      11.81997752       1.49380840      -1.84565953       0.85745940       3.69035879
Nb      -0.24063222      10.16311786       3.17188029      -0.76509545      -2.70797289       1.38917660
Nb       1.33145664      11.86293123       4.87169292       2.52544121      -0.85331599      -2.31879607
Nb      -0.24456456      10.14925105       6.49024960       1.90530280      -1.67873424       0.72397850
Nb       1.41605531      11.77218657       8.15729468       0.49108902       2.09524090      -1.34012759
Nb      -0.22919130      10.15519382       9.80254037      -1.78438809       4.38494161      -1.69552691
Nb       1.42460859      11.81330112      11.47070536       1.30566207      -2.78509820       0.09148643
Nb      -0.22336996      10.16046961      13.11095759      -1.76995991       1.70489744      -1.58787571
Nb       1.42978365      11.81825104      14.76516848      -1.07240027      -2.87185329      -0.60087254
Nb      -0.22657856      13.47594520      -0.14518684      -1.21025591      -0.17191623      -3.42761811
Nb       6.36339585      10.20119133       6.59078140      -0.02243289      -1.40223674       0.14184524
Nb      -0.24456484      13.48148755       3.15801266       0.57080810      -5.72569407       0.34156894
Nb       1.41605670      15.14853020       4.78094977       4.00756653       2.64179037       0.79217725
Nb      -0.29828420      13.50912662       6.51788915      -5.37570011      -0.47195988      -0.04451376
Nb       2.74234991      13.82223067       6.83099536      -0.00027164       0.16312945       0.20878170
Nb      -0.24811804      13.45930765       9.82146676      -0.16509492      -2.39832916      -0.13746981
Nb       1.41238075      15.15220627      11.49764529       1.12245127       2.98907258      -3.36214969
Nb      -0.23008148      13.47339931      13.12162481       1.53007105      -1.12274424       0.84450621
Nb       1.42998590      15.13460163      14.77416062       1.10380160       4.01911000      -0.84054799
Nb       3.08864235       0.22393847      -0.14518703       2.79421486      -0.50035426      -2.04417196
Nb       4.74590434       1.87780679       1.50994898      -1.76274964       0.87842149       2.86068793
Nb       3.08309809       0.24192556       3.15801135      -0.07670653      -1.25017699      -3.22980825
Nb       4.74237030       1.89296342       4.83097858      -2.58164337      -1.64507586      -3.91942595
Nb       3.05545828       0.29564250       6.51788965       2.75768705      -0.14342534      -1.45541251
Nb       4.75128499       1.89471538       8.14873996      -4.25657048       0.75236461       0.18370423
Nb       3.10527933       0.24547690       9.82146572       1.39685769       2.68933294       2.00300369
Nb       4.74921227       1.88284093      11.45882973       0.00861434       2.92627335      -0.30529751
Nb       3.09118831       0.22744147      13.12162417       1.77824011      -0.29509720       1.53977483
Nb       4.74675137       1.87611072      14.76633845       0.14499057       1.63373920       1.61777504
Nb       3.08953178       3.53151619      -0.14516611      -0.68849083      -0.91976805      -1.35263582
Nb       4.73553298       5.16915401       1.50557835      -0.63931037       1.35050850      -2.19741278
Nb       3.08746894       3.53327157       3.16838518       3.66527448      -1.23012660      -0.03372437
Nb       4.74939889       5.17308522       4.82394986       0.16739998       2.25864390      -2.78026989
Nb       3.08523226       3.54601761       6.48811712      -1.91908615      -5.95470881      -3.53607726
Nb       4.74633610       5.18917965       8.14356552      -2.54881075      -1.65686182       3.31117156
Nb       3.09118782       3.54563548       9.80343047       1.29508772      -0.61863795      -2.27766008
Nb       4.74675031       5.19035001      11.45209961       2.81531644      -1.27077299       1.36184012
Nb       3.09191941       3.53666701      13.11265628       2.93871504      -1.00175963       1.02938218
Nb       4.74147785       5.18452797      14.76051712      -0.19333676       0.92706139      -3.43291723
Nb       3.07920485       6.84357040      -0.14766775       0.71961945       2.83808004       3.07832637
Nb       4.66119933       8.51873534       1.52749622       0.98349339       0.78025590       0.76820123
Nb       3.07132975       6.82473576       3.16708884      -4.28028230      -2.27098552      -1.56335277
Nb       4.78747849       8.39627903       4.78587082       0.91171761      -3.53214897      -1.30816527
Nb       3.08924786       6.83090818       6.48410155       1.28662077       2.63450764      -0.89902816
Nb       4.74460904       8.48504795       8.16232990       3.64372767       0.99146296      -3.25798643
Nb       3.08864205       6.84605175       9.79992747      -1.11328314       1.29249192      -4.50849086
Nb       4.74590436       8.50118748      11.45379562       0.70302458       1.40708660      -2.13144891
Nb       3.08953244       6.84607228      13.10750511       0.99234988      -2.02606406       2.70624553
Nb       4.73553457       8.49681659      14.74514357       1.10180866       1.62305328       1.23643160
Nb       3.07132910      10.15832687      -0.16650272       2.22853563      -4.59437821       0.60235848
Nb       4.78747768      11.77710857       1.40504178      -2.84090078       1.44142135       1.74301569
Nb       2.98256442      10.20119153       3.20995376      -1.31296261       1.08717267      -1.00940680
Nb       9.72088169       6.84370494       9.78889667      -0.86994409      -1.01152693       1.20911925
Nb       3.10503056      10.07491310       6.46831765       0.81389041      -1.06299283      -3.99047261
Nb       4.70165608      11.86293103       8.24189437      -4.33060810       0.42864372       1.01035622
Nb       3.08309923      10.14924965       9.81791419      -0.88810272      -0.80032015      -0.68402498
Nb       4.74237032      11.82221595      11.46895200      -1.37437299       0.19732172       0.65131470
Nb       3.08746941      10.15962302      13.10926115      -3.04622510       2.57574891       0.79421561
Nb       4.74940027      11.81518695      14.74907529       3.40848521      -1.10388057      -0.50252159
Nb       3.08924812      13.47533955      -0.16033080      -1.05205164      -0.24717781      -0.48113463
Nb       4.74460936      15.15356894       1.49380913      -1.40816815       2.86842199       0.71219986
Nb       8.06162171       8.50296566       8.15615864       1.57485136       1.19386322       0.10831249
Nb       4.70165573      15.23313544       4.87169336       1.29411694       0.53823129       0.65689006
Nb       4.16868210      12.39591758       5.40467339       0.61612615      -1.99075890       1.10032032
Nb       4.79239787      15.14852759       8.15728897       1.34386294      -0.85804164      -0.16933498
Nb       3.05545921      13.50912714       9.87163192      -0.94503830       1.71527737      -0.24881851
Nb       4.75128535      15.13997810      11.47070418      -0.69571035       3.04928844      -0.00782125
Nb       3.08523313      13.47935477      13.12200593       0.70290886      -5.46217738      -1.48107306
Nb       4.74633716      15.13480303      14.76516847      -1.06409826      -4.29372990      -0.60561080
Nb       6.40453203       0.22189860      -0.14773607      -0.43733336       0.62585588       0.48644819
Nb       8.06563493       1.86506269       1.50771370      -2.51413249       0.40178018      -0.11170301
Nb       6.40146924       0.23799314       3.17187906       1.25736358       0.08266015       0.04216020
Nb       8.06339926       1.87780736       4.82744430      -0.76026994       0.50251742      -3.52988075
Nb       6.41533702       0.24192566       6.49025023      -0.61557692       0.70518523      -2.54792469
Nb       8.06133568       1.87956309       8.14099654       2.66425178       0.79976016      -1.07765420
Nb       6.40939096       0.22654957       9.80253889       3.61865046      -1.46108625       1.78124761
Nb       8.05894828       1.87441234      11.45040199      -0.88818714       0.94488911       4.37160801
Nb       6.40411780       0.22072896      13.11095719      -3.86974655       0.06091854       2.15647662
Nb       8.05968057       1.86544516      14.75962784       1.26702096      -0.26622135       0.80502270
Nb       6.39958458       3.51636467      -0.15291015       0.66558342      -0.50028367       1.87664593
Nb       8.09540457       5.11544714       1.47794418      -0.80971737       1.02688035       3.00424989
Nb       6.40849754       3.51811616       3.16485103       2.75852054      -0.66298656      -0.71657087
Nb       8.06777113       5.16915388       4.83781541       0.18217562      -1.25676380       0.32395395
Nb       6.40496406       3.53327205       6.48587991       0.40176031      -1.17534607      -0.69157383
Nb       8.06222603       5.18714004       8.14101692      -2.78558534       0.18675415       0.40362901
Nb       6.40411725       3.53496828       9.79671850       0.44583444      -2.23203555      -1.83145453
Nb       8.05968044       5.18363841      11.44143432      -3.76870331       0.97520433       2.12833436
Nb       6.40165680       3.52823858      13.10422706       2.05810956       1.86817315       0.05702828
Nb       8.04559531       5.16560289      14.74159199       0.59305425       1.47803676       0.63427446
Nb       6.35848282       6.82976963      -0.16146740       1.50887649       0.97455799      -0.78973018
Nb       8.40844617       8.15614594       1.16490347       2.68523930      -2.02271900      -1.01671144
Nb       6.44921083       6.74517556       3.12413855      -0.13360500      -5.56732792       2.41346013
Nb       8.04585400       8.51873369       4.91214979      -1.39613941      -1.23645542      -1.05906294
Nb       6.40626018       6.82473495       6.50201947      -0.86736346      -1.42407776      -1.22654090
Nb      13.04788950       3.51669663      13.09268631       4.82267503       0.25597389      -1.32533201
Nb       6.40453173       6.84350255       9.79788750      -0.92442260      -3.29249996       0.15984271
Nb       8.06563552       8.49895122      11.44105125       0.51847630       3.53194455      -0.75418004
Nb       6.39958469       6.83832759      13.09235356      -0.30003396      -0.15254567      -1.56885836
Nb       8.09540412       8.46918276      14.69143511      -1.00974425       2.97340353      -0.45272609
Nb       6.44921083      10.11537598      -0.24605729      -3.65967808      -0.81661547       0.66510685
Nb       8.04584916      11.90337918       1.52749896       2.35860939       0.55841377      -1.38130531
Nb       6.98210646       9.58247022       2.59124395       0.56556189      -1.27534312      -1.61757828
Nb       8.16830380      11.77710769       4.78587064       1.30193406       5.11715706       1.12954246
Nb      11.38220989       5.18237566      11.43205079      -0.96036822      -1.84505675      -1.28495769
Nb       8.07954034      11.81997636       8.16233210       1.59473848      -1.54288331      -1.90384606
Nb       6.40146904      10.16311690       9.81398107       0.05890621      -0.22722579       0.13302002
Nb       8.06339897      11.81868147      11.45379562      -0.09474351      -4.21554524      -1.75758649
Nb       6.40849750      10.15608870      13.09410470       0.08630487       0.62244483      -3.37045411
Nb       8.06777005      11.82905181      14.74514354      -3.15881600       1.78345224       3.55374992
Nb       6.40626108      13.49325576      -0.16650144       0.31686067       1.85129989       0.62608772
Nb       8.06162081      15.14739621       1.51172748       1.24405979       0.18050089      -1.01298565
Nb       6.36339588      13.58202311       3.20995344       2.11392921      -0.51011582       0.72369935
Nb       8.07954077      15.15357033       4.82873854      -3.55160565       1.08247058      -0.45840890
Nb       6.48968368      13.45955954       6.46832142      -1.89574860       0.06530105       0.86260742
Nb       8.07166575      15.13473525       8.14349679      -2.68662963       0.47683959      -0.22844699
Nb       6.41533664      13.48148757       9.81791363       0.60166658      -4.08561747       3.78715003
Nb       8.06133575      15.13223347      11.45555227      -1.40197161       1.14383801      -1.15591983
Nb       6.40496394      13.47711706      13.10926087      -2.04367739       0.80721135       0.55106436
Nb       8.06222613      15.13225377      14.76312971       0.59386242       2.97340265      -2.60319369
Nb       9.72088146       0.21290697      -0.14753228       0.59563269       3.85910652       0.21066763
Nb      11.38094813       1.86544527       1.51366798      -3.68412053       0.04083627       1.91188209
Nb       9.72108459       0.22189950       3.16881641      -0.62326264       0.95404021       2.72345295
Nb      11.37423721       1.87611117       4.82659824      -1.06976069       1.56865699      -0.56588270
Nb       9.71853575       0.22393875       6.48470680       0.87355970       0.39470445       0.65241856
Nb      11.36800659       1.87978838       8.13791170      -2.14486847       3.11358478       0.13012282
Nb       9.71351427       0.22112700       9.79711651      -1.61357664      -2.79724848      -0.56697988
Nb      11.36635007       1.87338411      11.44937347       1.50528518       0.79159793       1.79266359
Nb       9.71542958       0.21449981      13.10728169      -0.21960812       1.32057177       2.93081173
Nb      11.38221036       1.85606136      14.75836566      -0.40227886      -1.82181366       2.82535747
Nb       9.73848275       3.48943166      -0.16513359      -0.12694920       1.58526482      -0.88700758
Nb      11.39898409       5.16560252       1.52775347       2.56554916      -1.52097287       0.29300600
Nb       9.72625906       3.51636458       3.17376431      -2.19855003       0.04422943      -1.30417603
Nb      11.38005923       5.18452822       4.83187079       3.63647245       1.43021553       1.75358022
Nb       9.71851526       3.53151624       6.48381710      -2.92814808       0.16989385      -1.92564639
Nb      11.37463421       5.18995237       8.13599648      -3.80315061       0.66954806      -0.07227816
Nb       9.71542985       3.53129155       9.79048949       1.97143636       2.14043442       0.75233795
Nb      14.69120274       1.87338434      14.77422554      -2.24100962      -1.38763305       2.69579216
Nb       9.71298836       3.51788268      13.09387269       2.31255564      -0.26723778       2.33686531
Nb      11.44313526       5.12145137      14.69744096      -0.48333458      -3.24750772       2.06043149
Nb       9.88978653       6.67480084      -0.31643702      -0.92667583      -2.30445143      -0.93680087
Nb      11.44914162       8.46918270       1.47794479      -1.43419850       1.01631139      -1.90493383
Nb       9.73481701       6.82976937       3.21486566       0.55351547      -0.44199603      -4.02092015
Nb      11.39543231       8.49681627       4.83781473      -0.39345896       2.04369605       1.29903242
Nb       9.72101772       6.84356991       6.49414454      -0.44727647       1.05283729      -5.25054078
Nb      11.37744710       8.50236077       8.14101685      -0.42496608       0.41280833      -0.97716039
Nb      14.67019250       1.89439412      11.47038360       1.78701851       0.18282482      -0.23919954
Nb      11.38094855       8.50490515      11.44143449      -3.00713798       2.75358185      -0.12588426
Nb       9.73848286       6.82610304      13.06542095       2.59111198      -0.51146849       0.42188429
Nb      11.39898445       8.51899065      14.74159133       1.28901845       2.79528766      -0.71137285
Nb       9.73482060      10.20610489      -0.16147111      -0.28913511      -0.02465025      -1.49032199
Nb      11.39543225      11.82905214       1.50557880       3.92203575       1.30970764       0.16225134
Nb       9.81940681      10.11537581       3.12413860       3.27835448      -2.75128567      -1.44196123
Nb      11.39150052      11.81518695       4.82394883      -1.55326150       1.64788533       0.68708221
Nb       9.73985207      10.15832720       6.50201924      -0.03249847      -2.47092721       0.42225109
Nb      11.37540726      11.81825036       8.14356581       2.87331455      -0.65001360       0.60527158
Nb       9.72108518      10.16005447       9.79788797       0.88889174       0.91064829      -2.78633812
Nb      11.37423726      11.81783582      11.45209978      -0.72234134      -2.11604318       1.45079051
Nb       9.72625934      10.16500200      13.09235288       1.34916455       0.12193641      -1.26854712
Nb      11.38005922      11.82310976      14.76051657       2.78529810       0.36413674       1.48604496
Nb       9.72101502      13.48537978      -0.14766643       2.92949880      -1.63730372       1.10925112
Nb      11.37744546      15.13225358       1.51112298       1.66280719      -1.14875460       2.77055058
Nb       9.73984954      13.49325526       3.16708800       2.43698329       2.08288979      -0.98075813
Nb      11.37540646      15.13480331       4.82701200       2.97642182       0.34148904       4.43597901
Nb       9.73367918      13.47533868       6.48410070       0.61350317       0.69500192       0.53243334
Nb      11.36641409      15.13460096       8.14336314       3.36546796      -1.31174108      -0.72888352
Nb       9.71853542      13.47594432       9.79992801      -0.59533687      -1.29337841       0.28708859
Nb      11.36800622      15.12914982      11.45577789       3.28632135       0.92227845      -2.80620777
Nb       9.71851463      13.47505421      13.10750540       3.16073347      -1.00871701       0.63916281
Nb      11.37463364      15.12723358      14.76594254       1.52282546      -0.14254803      -1.79729209
Nb      13.03329477       0.21450021      -0.14208141      -1.45092843      -0.27140122      -1.54312007
Nb      14.69017422       1.87441238       1.51440032       0.99644852      -4.05557957      -1.68582844
Nb      13.02961782       0.22072945       3.16923099      -1.98904172      -1.43295798       4.11529948
Nb      14.68174577       1.88284095       4.82413719      -2.43243591      -1.84691072       1.23453722
Nb      13.01895081       0.22744126       6.48216100       3.99166675      -0.75342861       2.10722134
Nb      14.67138693       1.89319902       8.13546891       2.26382696      -2.89981120       2.02910047
Nb      13.00956358       0.22870641       9.80469563      -1.05879371      -0.19630252      -0.37397955
Nb      16.27493504       0.28965137       9.86564045      -0.56331960      -0.32699028       0.52752490
Nb      13.02688815       0.21284521      13.11368784      -5.45391986      -3.16709530      -1.19425669
Nb      17.99707913      -1.43249285      18.06891078      -2.67160084      -1.38430152      -1.33314975
Nb      13.04670404       3.51788278      -0.13963968      -1.07528104       2.32575005       3.57013706
Nb      14.69914203       5.18363811       1.51366880       4.14124586      -1.46047121       0.22660574
Nb      13.03634822       3.52823806       3.17169196       2.84119030       4.96924495      -1.98383813
Nb      14.68847645       5.19034920       4.82659862      -0.57402612       3.69964872      -1.30264556
Nb      13.02791994       3.53666704       6.48143010      -0.22421807       5.58299872       1.15877593
Nb      14.68479862       5.19657998       8.13791223      -2.29064173      -0.92640880       1.13114141
Nb      13.02688830       3.53769788       9.78883435       0.49178515       2.03672274       0.84070106
Nb      14.69120239       5.19823619      11.44937344      -0.13072150       1.70431150       1.23180226
Nb      16.34346023       0.22112700      16.42706122       2.28327552       0.75189951      -3.36044099
Nb      14.70852492       5.18237600      14.75836584       0.86939062       0.85302637       1.57656045
Nb      13.07515542       6.82610351      -0.16513346       3.87663302       0.76004832      -0.03129492
Nb      14.69952450       8.49895149       1.50771431      -1.34990402       0.51289005      -0.50108099
Nb      13.04822319       6.83832737       3.17376473      -2.02743029      -1.35398041       3.33111572
Nb      14.68678067       8.50118746       4.82744466      -2.44663851       0.23301180      -0.27868630
Nb      13.03307131       6.84607195       6.48381684       0.07541326       1.50559837      -1.11323409
Nb      14.68502392       8.50325110       8.14099592       2.13392550      -1.51031594      -0.72098240
Nb      13.03329524       6.84915621       9.79048941       1.12493574      -2.47659730       0.32867527
Nb      14.69017365       8.50563710      11.45040217      -0.20636720      -3.48422395       1.07016576
Nb      13.04670354       6.85159735      13.09387234      -0.20671808       1.33108566       3.92715325
Nb      14.69914120       8.50490631      14.75962741      -3.28609124       0.12118209       1.24086731
Nb      13.04822340      10.16500261      -0.15291015      -0.81652363       1.68615122       2.05835585
Nb      14.68678006      11.81868286       1.50995002       1.98338626       1.21075979       2.93295568
Nb      13.04647080      10.15608879       3.16485138       0.57565247      -0.92028215      -0.75809054
Nb      14.67162323      11.82221642       4.83097791      -1.18935156      -0.87286491      -1.52620676
Nb      13.03131511      10.15962279       6.48587968      -2.28305147       1.49578717       1.57610115
Nb      14.66987063      11.81330134       8.14874072       1.04910238      -2.60180562       1.87308379
Nb      13.02961870      10.16046872       9.79671880       2.19801684       0.16850586      -0.64363154
Nb      14.68174495      11.81537514      11.45883044      -0.67968052      -0.99670221       3.72134109
Nb      13.03634831      10.16292989      13.10422749       1.06327143      -1.70463585       0.37655536
Nb      14.68847635      11.81783676      14.76633879       1.85747603      -1.32042922      -1.00022331
Nb      13.03307050      13.47505474      -0.14516572      -0.31145454       6.79259858      -1.88176134
Nb      14.68502347      15.13223382       1.51201284       0.78673896       0.61656111      -0.26672325
Nb      13.03131395      13.47711777       3.16838455       0.85371769       1.62330846       2.96199261
Nb      14.66986994      15.13997802       4.82206329      -0.93280475       4.67761087       0.70177276
Nb      13.01856849      13.47935395       6.48811624       1.44891517      -0.65687351       1.44132202
Nb      14.64292956      15.15220614       8.16096791       0.05211300      -2.61120142      -2.55527995
Nb      13.01895062      13.47339892       9.80343082      -2.51829706      -2.63064212      -0.07842144
Nb      14.67138715      15.12670669      11.46918878       0.01975702       3.26286042      -1.81081682
Nb      13.02791957      13.47266831      13.11265618      -3.63168833      -4.37567482      -0.44220840
Nb      14.68479828      15.12915001      14.77256919      -2.13330676      -2.96063215       1.52159349
Nb       5.57538903      -5.57803136       3.99795509       2.14010974      -0.89639554      -1.44468718
Nb       3.10502853      -3.10766958       3.08367033       0.68776047       0.49328660       0.94302915
