251
Lattice="15.94217505804519 0.0 0.0 0.0 15.94217505804519 0.0 0.0 0.0 15.94217505804519" Properties=species:S:1:pos:R:3:momenta:R:3 energy=-3186.639025685908 stress="-8.82025912646417e-08 -1.8244137163749078e-19 -1.800168724005415e-20 -1.8244137163749078e-19 -8.820259127440957e-08 7.2758272816024065e-19 -1.800168724005415e-20 7.2758272816024065e-19 -8.820259124351264e-08" free_energy=-3186.639025685908 pbc="T T T"
W        4.67743572       4.67870567       4.68378698       1.92084099      -0.48210429      -3.17597546
W       -0.07904823      -0.07777810       3.14156474       0.81043169       1.76997713       0.89347131
W        1.49598280       1.49725279       4.70597390      -2.03603386       1.63677382      -0.01720468
W       -0.11542018      -0.11415013       6.27637736       0.40225028      -2.80450131      -0.73641337
W        1.47620784       1.47747806       7.86486264       1.44257852      -0.59094488      -1.09290536
W       -0.12564055      -0.12437027       9.44100722      -2.37018458      -0.26636084       2.00641082
W        1.47701871       1.47828925      11.03761513      -2.55124507      -0.31846939      -6.92654286
W       -0.14098066      -0.13970953      12.55312709       1.10105068      -1.60990902      -0.30279596
W        1.49953024       1.50080074      14.18729962       3.50229832       2.88149107      -0.24010485
W       -0.07904839       3.13648338      -0.07269677      -1.28708438      -1.80384160       1.44568244
W        1.49598258       4.70089280       1.50233396      -3.98243311      -0.54396592      -2.68779537
W       -0.13488151       3.09980090       3.10488207      -0.02643844      -0.43724372      -3.48923979
W        1.47192921       4.68098794       4.68606913       5.21651116      -0.38276606       0.60975379
W       -0.11986384       3.07662915       6.27340572       3.20745277       0.71867188      -0.33129849
W        1.47421210       4.66646529       7.86229594       2.10582616       3.74498027      -4.29453584
W       -0.11834731       3.07313966       9.45044864      -1.38198809       0.20560728       1.44171867
W        1.47561744       4.66787715      11.04411207      -4.38130955      -2.89800950       0.05697500
W       -0.11123499       3.08195693      12.63228682      -0.14971964      -2.13443595      -0.55867012
W        1.48435798       4.67743334      14.23095419      -3.90304532      -2.58643155       0.20823925
W       -0.11542037       6.27129639      -0.10906871       5.67785468      -1.35357224       1.03525508
W        1.47620785       7.85978154       1.48255924       0.71546737      -1.35354082       0.60630438
W       -0.11986400       6.26832449       3.08171050      -1.18681098       2.88152468      -1.05252050
W        1.47421199       7.85721501       4.67154638       1.31203274      -4.29392537       0.75798297
W       -0.11820731       6.26167709       6.26675820       3.21952283       2.00878228      -1.77224723
W        1.47379271       7.85327895       7.85836022      -1.17690341       1.55179205       1.37560168
W       -0.11705255       6.25537141       9.45144151       2.30369889       3.11085380       2.55695520
W        1.47661031       7.85010914      11.04540706      -0.63575079       3.91732381       2.53854896
W       -0.11623497       6.25844836      12.63781815      -2.00278491       0.87203197      -0.08175500
W        1.47749971       7.85209086      14.23434383      -3.60039578       2.13306364      -0.03305958
W       -0.12564091       9.43592648      -0.11928897      -4.42447947       1.55524560      -1.55165756
W        1.47701905      11.03253356       1.48337034       1.30106249       0.22553767       1.76315909
W       -0.11834773       9.44536780       3.07822071      -1.19761169       3.51768586      -0.01847223
W        1.47561769      11.03903086       4.67295843      -1.34778984       3.14105164      -1.06305916
W       -0.11705261       9.44636044       6.26045271      -3.13652135      -1.47151053       1.21618176
W        1.47661069      11.04032568       7.85519003       3.08065998       0.21190357      -3.17402425
W       -0.11055561       9.44495932       9.45004029      -1.40951445       4.42743111       4.73011159
W        1.48605174      11.04761855      11.05269997       0.40891047       0.14464067       0.55065235
W       -0.10804116       9.43548991      12.63791608       0.49567470      -4.76603629      -7.31959779
W        1.48648760      11.03001854      14.23766979      -4.60103497       3.33987665      -1.35879185
W       -0.14097957      12.54804669      -0.13462796      -2.11991163      -3.04231129       0.81493317
W        1.49953119      14.18221800       1.50588244      -3.53120202      -1.25020206      -0.37879607
W       -0.11123461      12.62720564       3.08703816       1.97707765       4.46450440       3.21572177
W        1.48435865      14.22587296       4.68251439       0.82245728       2.19033445      -1.64258404
W       -0.11623443      12.63273725       6.26352970       0.10020487       0.54271003      -4.69141875
W        1.47750028      14.22926287       7.85717210       0.58695897      -4.83871319       0.61790538
W       -0.10804027      12.63283460       9.44057074      -3.96348559      -4.42302085       3.61882471
W        1.48648763      14.23258848      11.03509994      -2.48066612      -1.80797343       2.82120140
W       -0.01181872      12.69713333      12.70221473       2.24028788      -0.08360506       2.00777363
W        1.57123005      14.29010682      14.29518772       1.48713756       1.96444311      -5.07664822
W        3.13521299      -0.07777837      -0.07269713      -3.02724593      -3.79528792       2.01003508
W        4.69962242       1.49725273       1.50233369      -1.04498292       0.54243484       2.88570326
W        3.09853075      -0.13361160       3.10488197      -0.26152509       2.97164099       1.83439088
W        4.67971755       1.47319897       4.68606893      -1.06412156       7.48618666       2.04565843
W        3.07535909      -0.11859370       6.27340565      -2.26746406      -1.49734524       3.64528500
W        4.66519488       1.47548200       7.86229630       2.75432643      -4.08699103      -0.86182209
W        3.07186900      -0.11707739       9.45044901      -3.46693696      -1.78484327      -1.17085993
W        4.66660636       1.47688787      11.04411222       0.58552253       0.68392794      -5.48433403
W        3.08068611      -0.10996456      12.63228682      -1.88400935       1.87949446       3.22668955
W        4.67616261       1.48562840      14.23095427       2.35667497      -1.64333742       3.13504424
W        3.09853036       3.09980084      -0.12853059       0.62697664       6.14648373      -1.57395781
W        4.67971753       4.68098798       1.47828004      -0.02039877      -1.34358595       2.06130086
W        6.24327099       6.24454115       6.24962249       3.44782457       0.63484016       1.95572650
W        7.79621444       7.79748448       7.80256578      -0.99987661      -0.32127422       1.15481947
W        3.07633964       3.07760977       6.27984840       0.21942580       3.69059617       2.24946325
W        4.65932667       4.66059693       7.86297550       6.27884395      -0.93456221       0.20103210
W        3.06869902       3.06996932       9.45326703       4.00690471      -0.40820953       1.40407083
W        4.66030080       4.66157126      11.04526717       1.76699117      -4.35822707       6.31701637
W        3.07780908       3.07907953      12.63387080      -0.21237885      -0.00663171      -3.14855492
W        4.67084778       4.67211862      14.23304905      -0.33300483       1.29999754      -3.41866209
W        3.07535876       6.26832462      -0.11351264      -6.15631594      -0.60995466      -0.20179237
W        4.66519489       7.85721476       1.48056315       4.58525333      -1.58792732      -3.48162109
W        3.07633948       6.27476718       3.08269096       4.66916585      -4.59174992       1.91532801
W        4.65932690       7.85789425       4.66567821       1.27946691       2.64070130       0.44227638
W        3.06408397       6.26265080       6.26773192      -0.02279244       0.76546600      -1.21889574
W        4.64721049       7.84563799       7.85071947      -2.88135063       4.84332299       0.83612531
W        3.06476313       6.25678313       9.45284778      -2.78175298      -0.53648621       0.13088007
W        4.65365375       7.84661917      11.04692360       1.33770350       0.09636194       3.88096464
W        3.06860005       6.26121725      12.63952658       2.71467650      -2.41451367       0.85213467
W        4.66076110       7.85337799      14.23605893       3.37779390      -2.60296728       2.14115642
W        3.07186900       9.44536747      -0.11199641       0.07831688      -2.04195480      -3.29863089
W        4.66660671      11.03903047       1.48196887      -1.12090844       0.77895528      -4.85586720
W        3.06869906       9.44818556       3.07505049       1.24912435       0.10952076      -3.64888664
W        4.66030106      11.04018532       4.66665235       1.45938582      -5.41210525       5.68283376
W        3.06476332       9.44776617       6.26186435       5.31479502      -2.05834214      -1.66253444
W        4.65365384      11.04184249       7.85170038       0.39203177       3.10270810      -1.80599368
W        3.06219656       9.44577020       9.45085132       2.66486238      -2.07928273       1.47211748
W        4.65068161      11.03739843      11.04247980       2.11175027      -0.38247900       2.16313513
W        3.06988687       9.44447804      12.64124219       2.33480870      -1.64110323       0.77742447
W        4.66352955      11.03821251      14.23776768       3.32396168       0.59188742      -5.40344571
W        3.08068646      12.62720529      -0.10488359      -0.44738816       0.25193588      -1.35318880
W        4.67616283      14.22587259       1.49070927      -3.31142956      -2.49775452      -2.51676912
W        3.07780948      12.62878923       3.08416077       1.41642230       0.01526183       0.04394184
W        4.67084821      14.22796776       4.67719960      -5.33164685      -0.55832988      -0.62505898
W        3.06860049      12.63444534       6.26629833      -1.10769625       1.77219929      -0.22815512
W        4.66076098      14.23097803       7.85845943      -0.05270468      -6.39596287       0.63697544
W        3.06988706      12.63616094       9.44955930       2.10785991       4.25922297      -0.67168557
W        4.66352926      14.23268658      11.04329432      -0.83822600       4.25959046      -0.69982311
W        3.08429628      12.64431851      12.64939998       1.47770383      -0.66919960       4.23041446
W        4.67927631      14.23661203      14.24169336      -1.47708772       0.23012790       1.01337426
W        6.27002583      -0.11415020      -0.10906916       1.35779718       6.27743988       2.99771347
W        7.85851068       1.47747801       1.48255916      -0.23617753      -0.05937152       0.56024153
W        6.26705384      -0.11859390       3.08171001       0.57702423      -4.65161522       0.27358115
W        7.85594422       1.47548189       4.67154608      -3.26905436      -1.95718713       1.34051050
W        6.26040668      -0.11693740       6.26675835      -3.31251956      -0.78849581       1.38480268
W        7.85200862       1.47506238       7.85836029      -4.19104032       2.29624289       5.20127064
W        6.25410105      -0.11578244       9.45144197       1.47571342       3.03626042       2.11532217
W        7.84883858       1.47788082      11.04540697       2.84415515      -2.71442625       0.60005487
W        6.25717796      -0.11496427      12.63781833       1.82876943       0.92509403      -2.95045690
W        7.85082042       1.47877040      14.23434412       4.92540009      -1.68357089      -5.46954560
W        6.26705388       3.07662948      -0.11351297      -3.64453223      -2.11274161      -1.41055492
W        7.85594438       4.66646517       1.48056317      -0.20402675       5.06126719       3.45979716
W        6.27349664       3.07760976       3.08269083       5.35518822       0.68003757      -1.93049999
W        7.85662392       4.66059667       4.66567799      -2.27709312      -1.84939626       3.21498138
W        6.26138033       3.06535361       6.26773206       2.26498923      -9.22960693      -1.03192760
W        7.84436769       4.64848036       7.85071891      -3.78127224      -2.42354611       3.68863185
W        6.25551265       3.06603325       9.45284760      -2.60456510       2.61318845       3.30633366
W        7.84534861       4.65492381      11.04692362      -1.01436413      -5.21835449       0.80487242
W        6.25994678       3.06987031      12.63952672       3.43789737       0.53421065      -5.77751799
W        7.85210777       4.66203170      14.23605913      -1.83415671      -0.16754373       0.66469422
W        6.26040691       6.26167710      -0.11185624       0.15211817       2.39572973      -3.15110228
W        7.85200855       7.85327899       1.48014383      -1.52042654      -0.54481222      -1.04783740
W        6.26138041       6.26265062       3.07043511      -1.61108773       6.96902788       0.92036106
W        7.84436763       7.84563771       4.65356175       0.25445698      -5.52026908      -2.83903137
W        9.29716605       9.29843585       9.30351716      -1.12410518      -0.54696984      -0.79375104
W       10.72377509      10.72504553      10.73012565      -0.03596988       3.20214200       5.64529199
W        6.24098962       6.24225979       9.45513022       0.10533181       0.88911397      -0.11205397
W        7.82217683       7.82344698      11.06194155      -0.58200220       0.59690102       0.49382863
W        6.24985956       6.25112978      12.64253695      -2.81615752       0.88760751       1.43930360
W        7.84289896       7.84416911      14.24171519       1.16201541      -1.64655586      -0.80245218
W        6.25410137       9.44636027      -0.11070149      -2.92329230      -1.81819443       0.97937876
W        7.84883863      11.04032550       1.48296217      -2.39504222       5.08784756       1.88584200
W        6.25551289       9.44776610       3.07111444       3.19166136       2.21379561       1.49668702
W        7.84534884      11.04184240       4.66000510       1.08388247       0.14386528       1.67143343
W        6.24098992       9.45004921       6.24734139      -0.68310467      -2.11658954       1.94772411
W        7.82217690      11.05686083       7.82852830      -1.03089021      -1.87255908      -1.52350510
W        6.22108413       9.42599518       9.43107636       1.81075901       3.99203637      -4.12360461
W        7.78549367      11.00102541      11.00610632      -0.14731830      -4.15382414      -1.64163951
W        6.24454527       9.43762003      12.64463179       5.91955256      -1.99821261       4.37671498
W        7.84002138      11.03321280      14.24329916       4.62435279      -0.64425642       0.84827271
W        6.25717827      12.63273673      -0.10988334       0.99570551       0.64899335      -6.95875630
W        7.85082030      14.22926247       1.48385166       3.88004075       1.42388163       1.80823049
W        6.25994660      12.63444528       3.07495159      -2.57775709       2.22070038       1.24875728
W        7.85210745      14.23097795       4.66711234     -10.62773280       2.06751844       1.77731519
W        6.24985954      12.63745576       6.25621098      -1.27189284      -2.79437435       1.33252723
W        7.84289854      14.23663441       7.84925017      -0.96838623       4.24167536      -2.41356333
W        6.24454505      12.63955088       9.44270133      -0.58568616      -0.91673574      -3.01652103
W        7.84002110      14.23821801      11.03829462      -2.60905629       5.04436164       2.19703060
W        6.24143133      12.62881104      12.63389220       2.41966700      -6.41051332       1.41907257
W        7.83641125      14.22110430      14.22618568       3.09225533       5.45817859       0.22292758
W        9.43465573      -0.12437008      -0.11928877      -0.59534924      -1.99829270      -1.08584661
W       11.03126340       1.47828968       1.48337061       2.54885563      -2.33462632       2.79139048
W        9.44409722      -0.11707730       3.07822042       0.12239687       1.07953944       4.07998889
W       11.03776077       1.47688784       4.67295807       1.25963018      -0.60621440       2.53845049
W        9.44509001      -0.11578239       6.26045259      -1.76796623      -5.09726477       0.70435492
W       11.03905539       1.47788060       7.85519009       3.23687594       2.36050727      -3.40266712
W        9.44368941      -0.10928574       9.45004116      -1.11913923      -0.84568897       6.01406083
W       11.04634818       1.48732271      11.05269955      -2.45800212       6.68434397      -2.74189428
W        9.43421957      -0.10677000      12.63791572       1.37462344      -2.21416290       2.39103994
W       11.02874784       1.48775877      14.23767013       5.42933862      -0.36681253       2.00625678
W        9.44409710       3.07313961      -0.11199610       4.88404343      -0.15404171      -2.56837443
W       11.03776051       4.66787708       1.48196914       0.06112618      -1.52995254       2.91856753
W        9.44691523       3.06996900       3.07505034      -4.42604641      -0.32958378      -4.24146078
W       11.03891536       4.66157066       4.66665211      -1.14180500       4.78301479      -1.67830115
W        9.44649568       3.06603270       6.26186393      -3.60411731       0.23582039      -0.83587338
W       11.04057195       4.65492362       7.85169975       5.04198400      -0.23730923       0.00973419
W        9.44449942       3.06346678       9.45085089       2.62174906      -1.73480090      -0.45381513
W       11.03612810       4.65195189      11.04247940       4.95694081       2.23083654      -2.66977275
W        9.44320742       3.07115748      12.64124213       4.72316118      -3.47631608      -6.04271288
W       11.03694229       4.66479991      14.23776781      -2.08742757      -0.13566889      -3.29733132
W        9.44509034       6.25537151      -0.11070103       7.41132997       1.94081451       1.78537746
W       11.03905547       7.85010914       1.48296222      -0.59600333       1.45142837      -0.09940399
W        9.44649603       6.25678292       3.07111449       1.21299465       5.47503892       2.93998669
W       11.04057211       7.84661897       4.66000492       1.71011484       1.51799963       5.05781145
W        9.44877881       6.24225968       6.24734081      -0.73835679       0.53533775      -1.85308111
W       11.05559038       7.82344653       7.82852776       0.54586960      -0.43518136      -4.17817220
W        9.42472451       6.22235397       9.43107593       1.69248890      -3.85391204      -0.48760654
W       10.99975516       7.78676322      11.00610613       2.60384297       0.99496781      -2.72589877
W        9.43634970       6.24581546      12.64463161      -0.40585107       3.21495260       3.81507135
W       11.03194273       7.84129151      14.24329941       1.84718189      -3.84749466      -4.93037756
W        9.44368944       9.44495942      -0.10420421       4.06741043       0.36081784       2.84188146
W       11.04634853      11.04761878       1.49240380       3.34573377       4.76459484       1.10465257
W        9.44449973       9.44577001       3.06854827       2.11081165       1.87590508       4.07263178
W       11.03612798      11.03739848       4.65703325      -2.20787227       3.79926955       0.87093947
W        9.42472454       9.42599489       6.22743560      -2.44881625      -0.59312401       0.36975741
W       10.99975477      11.00102540       7.79184457      -2.68451221       1.69273031       1.50598153
W       12.09129319      12.09256094      12.09764487      -0.04206641      -0.41844260      -1.18086645
W       13.43143577      13.43270896      13.43778688      -2.42979521      -0.84011895      -0.12174636
W        9.42117863       9.42244833      12.68828695      -0.07490956       3.40002212       3.62529381
W       11.06168920      11.06295970      14.32246040       1.50655872       2.22164528      -5.69244748
W        9.43421946      12.63283479      -0.10168886      -1.59565689       3.17167532      -2.24284573
W       11.02874834      14.23258861       1.49283983      -0.60513274      -2.12517287      -3.62367878
W        9.44320771      12.63616103       3.07623854       2.45461546       1.86587079       2.00239217
W       11.03694231      14.23268695       4.66988094       1.87279665      -5.34868389      -3.47271885
W        9.43634957      12.63955108       6.25089656       1.59035200      -0.09654613       0.52585295
W       11.03194283      14.23821825       7.84637261      -0.78244987       5.55208363       1.55389731
W        9.42117796      12.68320716       9.42752947      -2.09089331       1.46220138       1.52671864
W       11.06169051      14.31737766      11.06804207      -1.84748955      -2.75049147       2.92917635
W        9.34947651      12.57531529      12.58039654       3.10853303      -3.84842760       3.06029390
W       10.93252487      14.16829058      14.17337183       0.50890905      -2.98874500      -2.41584860
W       12.54677501      -0.13970913      -0.13462836      -4.24113768      -5.08181777       2.33525084
W       14.18094875       1.50080052       1.50588174      -1.53542080       3.96508998      -2.21138185
W       12.62593544      -0.10996430       3.08703784      -0.29259809      -2.47643691      -0.94706641
W       14.22460308       1.48562863       4.68251425       1.65661209      -3.30389391       0.69034640
W       12.63146677      -0.11496449       6.26352950       1.64429532       0.67681569       1.12123487
W       14.22799243       1.47877037       7.85717193       2.16541128       1.69901189       0.10487992
W       12.63156435      -0.10677008       9.44057125      -0.95482010      -0.59575671      -4.73777933
W       14.23131872       1.48775877      11.03509926       1.61614909      -1.39092264      -5.04336909
W       12.69586276      -0.01054597      12.70221463      -0.65343812      -0.13109623       2.36473816
W       14.28883674       1.57250091      14.29518853       1.39013081       0.57164622       1.08032765
W       12.62593545       3.08195703      -0.10488314       2.75519398      -1.54490897      -0.10800877
W       14.22460272       4.67743335       1.49070976      -2.10186873      -6.14217722       0.10904637
W       12.62751970       3.07907923       3.08416054      -1.16657704      -2.37487653      -0.99863079
W       14.22669797       4.67211846       4.67719946      -2.50399438      -1.21603988       0.91198686
W       12.63317541       3.06987025       6.26629813      -4.35061555      -4.46442627       1.74594171
W       14.22970777       4.66203121       7.85845882      -4.16590369       1.69641170      -2.38523123
W       12.63489042       3.07115744       9.44955885       1.64306912       3.08051628       1.67339548
W       14.23141612       4.66479978      11.04329368      -5.50681814      -1.96097997       3.18770486
W       12.64304832       3.08556726      12.64939983      -5.47683194      -4.52900173      -0.80163223
W       14.23534194       4.68054680      14.24169365      -1.02948443       2.45870979      -1.38278568
W       12.63146672       6.25844849      -0.10988303      -1.32317946      -3.03378711       1.46250605
W       14.22799260       7.85209104       1.48385178      -2.54773163       2.47987714       3.76621366
W       12.63317516       6.26121706       3.07495170       1.07880118       2.44133581       0.83217341
W       14.22970788       7.85337813       4.66711247      -4.59281286      -0.61352749       0.91343776
W       12.63618544       6.25112933       6.25621039      -3.65091452      -1.68884263       1.10636667
W       14.23536398       7.84416881       7.84924976       3.98985530       1.77649086      -0.64271354
W       12.63828041       6.24581520       9.44270060       1.19503077       0.64342744      -2.96262165
W       14.23694773       7.84129107      11.03829374       2.62578266      -3.23816010       1.91235893
W       12.62754066       6.24270147      12.63389228       1.32989234       1.43962028       2.30958822
W       14.21983404       7.83768162      14.22618572      -3.56990869      -2.14049954      -2.84427248
W       12.63156478       9.43548994      -0.10168900       3.77477247       0.35692301      -0.17975201
W       14.23131864      11.03001911       1.49283951      -0.81407261       1.45996780      -0.19008274
W       12.63489055       9.44447832       3.07623847      -1.85004564      -2.66991139      -0.48608995
W       14.23141640      11.03821282       4.66988122      -4.05670653      -0.60043040      -2.02737197
W       12.63828035       9.43761984       6.25089639       5.34845579      -4.59560864      -4.91759669
W       14.23694750      11.03321310       7.84637239       0.03901917      -3.25818381      -3.08865238
W       12.68193572       9.42244788       9.42752892      -1.56350905       2.13658557      -0.75110960
W       14.31610818      11.06295937      11.06804022       1.29876439      -1.17716302       1.28601659
W       12.57404539       9.35074573      12.58039651       0.01470010       0.58026077       1.09378522
W       14.16701966      10.93379654      14.17337140      -5.59657701       7.54046378       1.50260716
W       12.69586319      12.69713387      -0.00546690      -3.96512902       1.96185536      -3.84501686
W       14.28883654      14.29010700       1.57758223       2.39719540      -0.37707170       2.13388833
W       12.64304854      12.64431879       3.09064834      -0.49387270      -6.23003517      -3.45623625
W       14.23534218      14.23661237       4.68562814      -0.40708377       5.53435668      -3.13300499
W       12.62754054      12.62881113       6.24778254       5.03906188       0.54686636      -1.45121018
W       14.21983399      14.22110439       7.84276277      -2.75228481      -4.01819927       2.01509541
W       12.57404510      12.57531526       9.35582768      -2.38703228      -3.02806084      -4.64666750
W       14.16701977      14.16829004      10.93887610      -8.91727678       5.06107633      -2.74453184
W       14.77158066      14.77285183      14.77793306       1.78720585       4.70913368       2.65756487
W       16.13910101      16.14036977      16.14545206       1.13970727      -1.74705766      -1.94102478
W        1.62353713       1.62480737       1.62988838      -3.14323971      -0.98935502       2.63249813
W        3.12449147       3.12576177       3.13084271       0.31991289       1.86275035       4.81085454
