251
Lattice="15.850995852544145 0.0 0.0 0.0 15.850995852544145 0.0 0.0 0.0 15.850995852544145" Properties=species:S:1:pos:R:3:momenta:R:3 energy=-2673.6522706160363 stress="3.302575134661123e-08 2.174554761320227e-18 1.9507132413590126e-18 2.174554761320227e-18 3.30257513688881e-08 2.3966888089591122e-18 1.9507132413590126e-18 2.3966888089591122e-18 3.302575134330953e-08" free_energy=-2673.6522706160363 pbc="T T T"
Mo      -5.93353693      -5.93227423      -5.92722238      -0.33391913      -3.57598150      -2.59550832
Mo       0.33908498       0.34034858       3.57330819       1.77602491       1.68918119       1.92769581
Mo       1.96446049       1.96572304       5.19413954       0.44404083      -2.98026920      -2.11158839
Mo       0.36294452       0.36420787       6.70602100      -0.05183616      -1.66856967      -3.83014048
Mo       1.95017505       1.95143806       8.29960283      -0.88088894      -1.37268475      -1.41186846
Mo       0.35911650       0.36037950       9.86516902       3.02937673      -0.87433001       0.10899837
Mo       1.94166816       1.94293108      11.44396343      -2.51215570       2.05866952       0.69368461
Mo       0.34485679       0.34611972      13.00644689       0.69547332      -2.08535799      -2.77954582
Mo       1.91519313       1.91645676      14.55381472      -3.87512686      -1.43802116       0.44980383
Mo       0.33908591       3.56825746       0.34540238       1.24058300       1.48673155       1.02469380
Mo       1.96446397       5.18908705       1.97077869       1.03337615       3.98913194       3.22186618
Mo       0.24630503       3.48947158       3.49452313       0.03763518       0.80245066      -1.82450142
Mo       1.83381483       5.07494192       5.07999600      -0.33440189      -2.00917999      -0.62697933
Mo       0.35476969       3.52787453       6.71226345       1.25532445      -2.90032401       1.79103742
Mo       1.94199767       5.12259199       8.29948981       0.20022294       1.15769473      -3.49202314
Mo       0.35888343       3.53456068       9.87485691      -0.29298653       1.59819563      -3.27952879
Mo       1.94244060       5.12182218      11.46195517      -2.13325234      -1.68455638      -0.03701971
Mo       0.34968415       3.53301599      13.03295560      -0.10670364       0.33566591       3.55021059
Mo       1.93513750       5.12016408      14.62281071       0.85053045      -0.36019391      -1.27261190
Mo       0.36294607       6.70096826       0.36926132      -3.17127990      -1.74393657       1.12685780
Mo       1.95017531       8.29455200       1.95648995      -1.22827904       3.68340846       0.05472448
Mo       0.35477044       6.70721117       3.53292684      -1.16769834       4.58449339       3.82669130
Mo       1.94199608       8.29443824       5.12764538      -0.34541582       3.48079195       1.52802089
Mo       0.35465200       6.69903298       6.70408624      -1.13101324      -0.69359709      -2.50460466
Mo       1.94823856       8.28626080       8.29131367       2.66152975      -2.93974952       1.88570398
Mo       0.36424269       6.70297181       9.87946265      -3.11945416      -1.52166522      -2.07225117
Mo       1.94712798       8.28753673      11.46535627      -0.42146269      -1.15718791       0.36796413
Mo       0.36167167       6.70208163      13.04621569       1.44601318       1.96985543      -3.14737276
Mo       1.94623607       8.28496769      14.63210905       2.66063058      -0.75207833       0.21898117
Mo       0.35911717       9.86011655       0.36543103       0.79621151      -0.49568600      -0.92354289
Mo       1.94166859      11.43891100       1.94798350       0.41529123       0.47467700       2.28948774
Mo       0.35888332       9.86980440       3.53961309       0.71827617       0.63641154       3.71623556
Mo       1.94244118      11.45690280       5.12687446       0.09815332       0.78438721      -3.15145582
Mo       0.36424270       9.87441015       6.70802500       1.70635974       2.61529175       0.50639391
Mo       1.94712831      11.46030351       8.29258910      -2.83735584      -1.52745796      -3.08587082
Mo       0.36692933       9.87136105       9.87641292       0.22593106      -0.80346137      -3.06471804
Mo       1.94667191      11.45296131      11.45801293       0.25050020       0.55815625       2.94031784
Mo       0.36254173       9.86608126      13.04587140      -1.05579967      -2.96804215      -0.05291119
Mo       1.94561238      11.44458226      14.62569317       1.99535038       2.06588766       1.60764563
Mo       0.34485664      13.00139387       0.35117168      -0.03759982       1.62054344      -1.19274059
Mo       1.91519335      14.54876136       1.92150896      -2.78108498      -1.53963198       1.94857801
Mo       0.34968447      13.02790237       3.53806787      -0.97099905       0.72882833      -4.50607198
Mo       1.93513749      14.61775743       5.12521649       0.18626158      -3.30263033       1.56309881
Mo       0.36167257      13.04116313       6.70713437      -1.80670982      -0.16659816       0.68826494
Mo       1.94623634      14.62705711       8.29001960       2.41886809       1.62532033       0.80887030
Mo       0.36254158      13.04081974       9.87113387      -0.72790920       0.84687336       2.86354434
Mo       1.94561165      14.62064180      11.44963455      -1.42489025       3.93568702       2.39661399
Mo       0.36388503      13.02584102      13.03089318      -1.42015199       3.52945493       2.45420962
Mo       1.95939514      14.59793776      14.60299036      -0.59055779      -0.08599743       2.59526770
Mo       3.56699273       0.34035025       0.34540269       0.57564638      -0.06212425      -1.48310643
Mo       5.18782565       1.96572446       1.97077597       1.31653811      -2.86768392      -0.98162966
Mo       3.48820722       0.24756639       3.49452226      -1.72214672       1.34497534       3.04226161
Mo       5.07367946       1.83507546       5.07999473      -0.79691297       0.35209313       0.90522647
Mo       3.52661101       0.35603180       6.71226326      -4.73533106      -1.41163950      -3.79500057
Mo       5.12132880       1.94325942       8.29949027       3.13829216       2.30918101       2.80183779
Mo       3.53329841       0.36014648       9.87485709       1.82683538       2.54728011      -0.19870520
Mo       5.12055907       1.94370425      11.46195523       1.77657532       3.44940548       1.45264372
Mo       3.53175320       0.35094787      13.03295569       2.29842242       1.97311823      -2.01103241
Mo       5.11890041       1.93640030      14.62281063       0.10000891      -0.04125472       0.61341060
Mo       3.48820667       3.48946992       0.25262007       0.92549839       2.26684964      -0.22159669
Mo       5.07368049       5.07494225       1.84012339      -1.27758409      -0.63397367      -0.35089119
Mo      -4.38379322      -4.38253048      -4.37747776      -2.30923575      -3.09005226       0.59495391
Mo      -2.81924315      -2.81797995      -2.81292767      -0.94337771      -1.85983190       1.00722386
Mo       3.57426082       3.57552333       6.82043104      -0.69422302      -1.30126076      -1.08681768
Mo       5.15974181       5.16100476       8.40796980      -1.60470505       1.20147370      -0.22716379
Mo       3.53532905       3.53659251       9.89586668       2.88505079       1.36764729       2.07674648
Mo       5.12141725       5.12268058      11.48541057      -0.53291280       1.67022564       2.04227493
Mo       3.52652760       3.52779113      13.02616213      -0.74765354      -1.39069321       0.90998336
Mo       5.11261517       5.11387904      14.61570023       0.92977039      -1.16422312       1.67805603
Mo       3.52661126       6.70721225       0.36108405      -0.38320160       0.20521627      -1.03618263
Mo       5.12133052       8.29443785       1.94831155       1.36845175      -0.80199595      -0.51291636
Mo       3.57426225       6.81538415       3.58057708       2.02439917       1.65250586      -0.50754545
Mo       5.15974231       8.40291560       5.16605761       0.35938805       0.82950827      -0.74859253
Mo       3.46009967       6.68472707       6.68977956      -0.74615470      -1.70504826       5.72260720
Mo       5.08093737       8.31010824       8.31516061       4.53965632      -3.81077268      -1.20898062
Mo       3.52904308       6.71406984       9.88875985       2.45724614      -1.47660907       0.00036306
Mo       5.11619235       8.29952607      11.47861605       1.40159586      -2.49779749       2.60872625
Mo       3.52738521       6.70676822      13.04961573       1.47545432       0.67732470      -1.65840222
Mo       5.11464609       8.29032688      14.63671440      -0.13557236      -1.73713798       3.77290274
Mo       3.53329913       9.86980507       0.36519790      -0.52871576      -2.25516553      -1.77481649
Mo       5.12056000      11.45690283       1.94875596      -0.46802731      -2.06017408      -2.59877653
Mo       3.53532967       9.89081439       3.54164477       3.48609342       1.35021313      -1.54404563
Mo       5.12141738      11.48035764       5.12773275       0.60489277       0.34210236      -2.62368158
Mo       3.52904403       9.88370681       6.71912164      -2.74682273       1.77625914      -0.74860003
Mo       5.11619192      11.47356440       8.30457806      -0.75718441      -1.35768799       1.62067735
Mo       3.53315261       9.87790276       9.88295507       0.98140206      -2.59255941       0.06607994
Mo       5.11754438      11.46588807      11.47093920      -1.24388792      -4.12664006      -0.60532937
Mo       3.53129011       9.87107819      13.05121400       3.07110217       3.35763615      -3.62492627
Mo       5.11665686      11.45530615      14.63544290      -0.38489728       1.70704025       1.75113599
Mo       3.53175362      13.02790301       0.35600001      -0.16501857       1.72248497      -2.07255797
Mo       5.11890141      14.61775791       1.94145265      -1.14092681       0.81311553       1.38556861
Mo       3.52652796      13.02110927       3.53284355       1.23435968       0.25474431      -0.99147515
Mo       5.11261592      14.61064814       5.11893067       0.85051300      -2.74915236       1.04201047
Mo       3.52738566      13.04456316       6.71182044      -0.51931131      -3.16172454       2.28332288
Mo       5.11464633      14.63166296       8.29537853       3.34149711       0.12131197      -2.27273055
Mo       3.53128986      13.04616234       9.87612989       0.21087349       1.08403175      -0.24309507
Mo       5.11665637      14.63039162      11.46035777       1.42323161       2.71726294       5.89282910
Mo       3.53040273      13.03558122      13.04063294      -1.16268111      -0.81949155       0.49104009
Mo       5.11479415      14.62356269      14.62861455      -2.82543506      -2.46742068       1.52699122
Mo       6.69970602       0.36420822       0.36926011       1.72862253      -0.94125614       3.62098107
Mo       8.29328899       1.95143778       1.95649011      -2.21479572      -0.76502675       4.40741110
Mo       6.70594828       0.35603151       3.53292683       0.98339355      -3.60391233      -1.18616273
Mo       8.29317588       1.94325875       5.12764420       0.93312987       0.19832923      -5.55399549
Mo       6.69777044       0.35591400       6.70408577       3.44763604       1.15043923      -1.98402535
Mo       8.28499822       1.94950128       8.29131340       1.02410612       2.83570564       1.77190447
Mo       6.70170907       0.36550599       9.87946254      -2.44137582       3.02297337       1.98612894
Mo       8.28627437       1.94839159      11.46535561      -0.44652512       3.46577366       5.24579741
Mo       6.70081919       0.36293608      13.04621565       1.63885033       1.90550406      -2.75799807
Mo       8.28370443       1.94749916      14.63210873       0.51156801      -1.97543651      -3.38005802
Mo       6.70594983       3.52787374       0.36108355       1.27807062      -0.86668434       2.80791636
Mo       8.29317466       5.12259307       1.94831175       0.19859847       0.04345170      -0.07878359
Mo       6.81412020       3.57552272       3.58057670      -0.29077551      -0.61876242      -0.72595720
Mo       8.40165283       5.16100605       5.16605811       0.67807269      -3.66337456       0.87298337
Mo       6.68346341       3.46135782       6.68977899       0.33000666       0.59449693       2.97685194
Mo       8.30884119       5.08220162       8.31515717       1.43019675       2.38642806       0.14999703
Mo       6.71280629       3.53030768       9.88875879       0.80752472      -0.55648417       4.64101353
Mo       8.29826190       5.11745531      11.47861542      -2.34750969      -1.74762739       0.19405231
Mo       6.70550529       3.52864910      13.04961520      -0.88676828       0.67567461      -0.07231645
Mo       8.28906343       5.11590908      14.63671440      -2.31543436      -0.65680412      -2.46890882
Mo       6.69777110       6.69903363       0.36096609       0.59045461      -0.31040459       0.30603238
Mo       8.28499758       8.28626003       1.95455449       1.40029500      -1.54034171      -2.05526534
Mo       6.68346142       6.68472371       3.46641576       0.55991283      -4.82017615       1.68485747
Mo       8.30884411       8.31010727       5.08725193       1.46718242      -2.42248859      -1.95780679
Mo      -1.26948020      -1.26821706      -1.26316433       0.29693338      -3.80012441      -0.00391587
Mo       0.22006043       0.22132415       0.22637705       0.89942343       1.97281626      -2.43289324
Mo       6.73276088       6.73402481       9.95778114       0.79823355       1.37533309       0.97696278
Mo       8.30309660       8.30436008      11.50514423       1.66427791      -0.06704034      -0.06754797
Mo       6.70627844       6.70754174      13.06761186      -0.40327259      -1.39509220       0.43402788
Mo       8.28883112       8.29009441      14.64640753       4.14134823      -3.27378991       0.38432620
Mo       6.70171010       9.87441051       0.37055818       1.61457541       1.38095413      -0.52476598
Mo       8.28627441      11.46030336       1.95344354      -3.57134869       2.11611760      -0.44453739
Mo       6.71280657       9.88370647       3.53535926      -1.93359604      -1.30173057       1.98157334
Mo       8.29826259      11.47356400       5.12250696      -2.05535104      -1.48012399      -0.25614719
Mo       6.73276105       9.95272983       6.73907592      -4.22923590       0.17874562       2.79654922
Mo       8.30309696      11.50009291       8.30941136       0.56982235       0.40560729       1.44570050
Mo       6.68854249       9.90353522       9.90858665       2.57208581       6.01340463      -0.59565224
Mo       8.28405978      11.47563603      11.48068759       2.72451706      -0.38491282      -0.77560279
Mo       6.70233473       9.88082961      13.06194110      -2.97549527       2.11788262       2.47810803
Mo       8.28540749      11.46065098      14.64044270       1.24935921      -2.50167865       0.24680925
Mo       6.70081915      13.04116318       0.36798745      -0.13339836       3.26976296      -1.53167952
Mo       8.28370436      14.62705714       1.95255098       1.60323147       0.11118189       0.61126313
Mo       6.70550559      13.04456335       3.53370107      -1.79347269      -1.49581523      -0.79843139
Mo       8.28906350      14.63166224       5.12096136       0.40973160       2.54524925      -1.82449249
Mo       6.70627908      13.06255970       6.71259381      -1.23922112       0.34495006      -3.12217150
Mo       8.28883159      14.64135602       8.29514632       2.26671827       1.59116028      -3.91364784
Mo       6.70233471      13.05688940       9.88588138      -0.48927251      -3.30569407       2.48148394
Mo       8.28540724      14.63539119      11.46570307      -0.60822601      -2.02930644       0.41599854
Mo       6.70127671      13.04850955      13.05356102       1.70688954       1.84142286      -0.64123909
Mo       8.28102060      14.63010926      14.63516078      -2.85746933      -1.56920114      -3.05633201
Mo       9.85885389       0.36037975       0.36543164       0.70754311      -2.34408774       0.69365793
Mo      11.43764750       1.94293196       1.94798354      -1.03989922       0.38139728      -0.75412590
Mo       9.86854222       0.36014652       3.53961375      -0.32124151       0.34033223       0.03169340
Mo      11.45563970       1.94370486       5.12687497       2.13027247       0.55575047      -0.32017483
Mo       9.87314813       0.36550599       6.70802497       0.02975177      -2.37343252      -0.37145244
Mo      11.45904031       1.94839196       8.29258940       4.04326257       2.26497703       1.79040808
Mo       9.87009835       0.36819327       9.87641292       0.59229610       0.09682410       0.30155699
Mo      11.45169832       1.94793526      11.45801284       2.30285581       0.92502474      -3.43494413
Mo       9.86481854       0.36380487      13.04587082      -1.50613938       1.23122387       1.79527960
Mo      11.44331895       1.94687539      14.62569368      -1.49721630       1.77512933      -0.28619167
Mo       9.86854217       3.53456159       0.36519839      -1.77742298      -0.74958112       3.44865477
Mo      11.45564025       5.12182312       1.94875634       0.57031852      -0.02977145      -2.12521534
Mo       9.88955180       3.53659340       3.54164529       1.36471477       0.20910032      -3.15241570
Mo      11.47909487       5.12268125       5.12773236       0.23046284       3.52939647       1.17338802
Mo       9.88244327       3.53030827       6.71912185       0.72478952      -2.29760380       0.95498965
Mo      11.47229986       5.11745537       8.30457675       1.87522804       2.42415155       0.58263073
Mo       9.87663885       3.53441708       9.88295391      -3.14005580       1.74616949       1.71679588
Mo      11.46462400       5.11880748      11.47093891       3.92133046      -2.00235078       0.75956351
Mo       9.86981510       3.53255336      13.05121385      -5.50231310      -1.05788583       0.94547894
Mo      11.45404251       5.11791971      14.63544279      -1.08391863       1.36794919      -2.32810058
Mo       9.87314699       6.70297241       0.37055796       0.64370179      -1.72858501       2.95017891
Mo      11.45904098       8.28753749       1.95344380       0.35597268       0.43140568       1.33561828
Mo       9.88244339       6.71406954       3.53535899      -0.20288270       1.72865028       0.07122340
Mo      11.47230052       8.29952594       5.12250754      -1.25504130      -0.61497531      -4.20855038
Mo       9.95146525       6.73402483       6.73907625      -0.27024321       1.41894887       1.96424957
Mo      11.49882847       8.30435994       8.30941118      -1.01932163       0.16816238      -0.34714661
Mo       9.90227128       6.68980461       9.90858604      -0.40566222      -3.09756137       0.42687665
Mo      11.47437176       8.28532216      11.48068690      -1.73779435      -1.69764361       0.49324416
Mo       9.87956645       6.70359776      13.06194063       0.08375715       1.87721619       0.33502934
Mo      11.45938806       8.28666965      14.64044279       0.69281691       1.30819850       2.28345147
Mo       9.87009794       9.87136047       0.37324471       4.06186221       0.81094952      -3.14150468
Mo      11.45169822      11.45296089       1.95298686      -1.20936823      -0.29838537       3.05298906
Mo       9.87663918       9.87790266       3.53946789       1.03264648       0.88991215      -2.12811719
Mo      11.46462466      11.46588775       5.12385912       1.35624822       1.60682304       1.79131768
Mo       9.90227158       9.90353441       6.69485709      -3.13690007       1.86575731      -0.49189689
Mo      11.47437234      11.47563558       8.29037495       0.44503837      -1.27571378       0.44087358
Mo       1.63668072       1.63794512       1.64299846       0.94317095      -1.52697937      -0.54049016
Mo       2.99258749       2.99384670       2.99890289      -0.44797048       3.66055562       0.74910511
Mo       9.87727612       9.87853913      13.06559868       3.04756279      -1.09271578       1.15941701
Mo      11.45228468      11.45354710      14.63856259      -1.39911670       2.27076358       0.85882097
Mo       9.86481844      13.04081977       0.36885664      -0.41530784      -1.19143564       3.10172080
Mo      11.44331852      14.62064153       1.95192715      -1.12233868      -1.48717674       1.07254973
Mo       9.86981524      13.04616206       3.53760479      -1.14669848       0.13462025      -2.56648161
Mo      11.45404275      14.63039115       5.12297150      -1.66492636      -1.18769180      -5.67326894
Mo       9.87956659      13.05688922       6.70864994      -2.47373231       0.59525463      -1.52251388
Mo      11.45938832      14.63539059       8.29172219       0.51816567       0.66098679       0.87371423
Mo       9.87727664      13.06054686       9.88359124      -2.89078880      -1.78782760      -1.19324519
Mo      11.45228478      14.63351032      11.45860005       0.21818571      -1.29997647      -4.20447620
Mo       9.86669947      13.04792690      13.05297888       2.03196256      -0.60114664      -0.89293278
Mo      11.43966846      14.62293485      14.62798683      -4.10940729       1.29021205       2.55867442
Mo      13.00013017       0.34612005       0.35117219       1.57336065      -0.42909778       2.91616693
Mo      14.54749838       1.91645715       1.92150904       1.18311730       0.52729523       3.67481817
Mo      13.02663963       0.35094811       3.53806856      -1.26118381      -2.24954559      -4.30763921
Mo      14.61649497       1.93640061       5.12521604       2.03773512       5.47775367       2.55201511
Mo      13.03990055       0.36293600       6.70713428      -2.16632146       2.81270420       2.23059131
Mo      14.62579385       1.94749903       8.29001939       0.76625072       1.32630448      -1.32339147
Mo      13.03955692       0.36380498       9.87113412       1.07000649      -0.25601817      -2.33969588
Mo      14.61937864       1.94687476      11.44963415      -0.52026847      -0.74467523       0.81147175
Mo      13.02457820       0.36514854      13.03089345      -2.66645138      -0.33027777      -1.47324996
Mo      14.59667474       1.96065861      14.60299057       3.67102391       0.14804253       2.07085672
Mo      13.02663972       3.53301661       0.35600009       2.72463141       3.17558800      -0.44392337
Mo      14.61649635       5.12016432       1.94145295      -0.73403036       2.07129542      -1.45786725
Mo      13.01984696       3.52779241       3.53284357       3.35316606       2.14935736       3.32977624
Mo      14.60938654       5.11387926       5.11893102      -2.31783707      -2.76122250      -0.35805861
Mo      13.04330074       3.52864924       6.71182017      -1.46181462      -1.26030680      -0.52989422
Mo      14.63039952       5.11590898       8.29537818      -1.26583536      -1.07836033      -1.42415439
Mo      13.04489926       3.53255313       9.87612941       1.06428886      -0.45772333      -0.45085017
Mo      14.62912741       5.11791928      11.46035768      -2.37881581       3.58413797       0.84463974
Mo      13.03431782       3.53166537      13.04063284      -2.89789710      -3.32261318      -1.60295895
Mo      14.62229948       5.11605782      14.62861492      -2.33319576       0.49364119       1.05402521
Mo      13.03990020       6.70208251       0.36798783      -0.54171106       2.71349849       0.56145107
Mo      14.62579486       8.28496737       1.95255105      -0.70788701       0.63737867       0.71246585
Mo      13.04330046       6.70676894       3.53370085      -1.46680522       1.62725536      -5.09543744
Mo      14.63040021       8.29032575       5.12096131      -2.31705318       4.55716515       0.05328050
Mo      13.06129747       6.70754184       6.71259384       0.99964663      -0.40378710       1.13985178
Mo      14.64009238       8.29009387       8.29514638      -3.57432397       0.97476512      -1.24608860
Mo      13.05562629       6.70359725       9.88588073      -2.26493177      -1.30371035      -0.60999452
Mo      14.63412717       8.28666966      11.46570305       0.42383524       2.16823784      -0.34906934
Mo      13.04724540       6.70253964      13.05356112      -1.77218628      -2.43077456      -1.27631490
Mo      14.62884640       8.28228351      14.63516141       3.48599712       0.78857244      -0.26800762
Mo      13.03955662       9.86608125       0.36885667       3.19978761       0.81781454      -1.69692773
Mo      14.61937874      11.44458168       1.95192668       1.79740055      -2.30999770      -0.10614697
Mo      13.04489983       9.87107768       3.53760519      -2.19844254       0.54573466      -3.55042533
Mo      14.62912789      11.45530552       5.12297139       2.22675324       1.81446270      -1.82837767
Mo      13.05562646       9.88082948       6.70864958       0.08434558      -1.17187708      -0.11153855
Mo      14.63412769      11.46065108       8.29172199      -0.20796232      -4.35154432      -4.09524232
Mo      13.05928360       9.87853875       9.88359143      -0.25729056      -1.06685603       1.07701218
Mo      14.63224711      11.45354711      11.45859965       1.56640098      -3.21485327      -0.20053132
Mo      13.04666374       9.86796207      13.05297860      -4.34505482      -0.07054465      -0.17443877
Mo      14.62167206      11.44093124      14.62798652       2.84206930       0.26086256       1.58403603
Mo      13.02457759      13.02584063       0.37019997       0.76272583       0.24602286       2.46632545
Mo      14.59667402      14.59793786       1.96571062       0.97978858       1.46745952      -1.85213451
Mo      13.03431771      13.03558045       3.53671769       0.06417627      -2.24776885      -1.04695157
Mo      14.62229904      14.62356218       5.12110955      -0.61144591      -0.60144416      -3.85727910
Mo      13.04724623      13.04850884       6.70759209      -2.64660117       0.29650603       0.65054733
Mo      14.62884581      14.63010906       8.28733621       0.77775168       1.55183038      -0.26919340
Mo      13.04666389      13.04792680       9.87301471       0.69287568      -3.05776264       1.68490208
Mo      14.62167181      14.62293450      11.44598397       1.39816528       0.62919431       5.40874197
Mo       4.32404628       4.32530981       4.33035347      -3.29446747      -0.74382268      -2.59731598
Mo       5.65549571       5.65675504       5.66181517      -0.31821313      -2.93958803      -3.68997417
Mo      -8.83962262      -8.83835438      -8.83330561      -2.60919246      -0.85713070       1.55898712
Mo      -7.42303617      -7.42177252      -7.41672111       1.53757825      -0.73646149      -0.84007453
