249
Lattice="16.604407373309908 0.0 0.0 0.0 16.604407373309908 0.0 0.0 0.0 16.604407373309908" Properties=species:S:1:pos:R:3:forces:R:3 energy=-2504.5267004260313 pbc="T T T"
Nb       0.05045060       0.05045060       0.05045060      -0.00000133      -0.00000133      -0.00000133
Nb       0.05044634       0.05044634       3.27044152      -0.00000045      -0.00000045      -0.00000186
Nb       1.66043815       1.66043815       5.04115983       0.00000036       0.00000036      -0.00000401
Nb      -0.00322184      -0.00322184       6.63987448       0.00000076       0.00000076      -0.00000189
Nb       1.66043914       1.66043914       8.31003952       0.00000029       0.00000029      -0.00000705
Nb      -0.00270921      -0.00270921       9.96264857       0.00000367       0.00000367      -0.00000107
Nb       1.66044252       1.66044252      11.61525112      -0.00000048      -0.00000048       0.00000645
Nb      -0.00321638      -0.00321638      13.28542294      -0.00000024      -0.00000024       0.00000000
Nb       1.66044426       1.66044426      14.88413060      -0.00000070      -0.00000070       0.00000354
Nb       0.05044634       3.27044152       0.05044634      -0.00000045      -0.00000186      -0.00000045
Nb       1.66043815       5.04115983       1.66043815       0.00000036      -0.00000401       0.00000036
Nb       0.05044090       3.27043664       3.27043664       0.00000148      -0.00000040      -0.00000040
Nb       1.66043553       4.94337173       4.94337173       0.00000092      -0.00000117      -0.00000117
Nb      -0.00322500       3.32410148       6.63987113       0.00000131      -0.00000049      -0.00000119
Nb       1.66043669       4.98189327       8.30162893       0.00000079       0.00000078       0.00000476
Nb      -0.00271196       3.32359330       9.96264520       0.00000403      -0.00000404      -0.00000040
Nb       1.66043990       4.98189685      11.62365519       0.00000008      -0.00000018      -0.00000377
Nb      -0.00321954       3.32410673      13.28541915       0.00000037      -0.00000145       0.00000086
Nb       1.66044102       4.94337912      14.98191084      -0.00000009      -0.00000389       0.00000333
Nb      -0.00322184       6.63987448      -0.00322184       0.00000076      -0.00000189       0.00000076
Nb       1.66043914       8.31003952       1.66043914       0.00000029      -0.00000705       0.00000029
Nb      -0.00322500       6.63987113       3.32410148       0.00000131      -0.00000119      -0.00000049
Nb       1.66043669       8.30162893       4.98189327       0.00000079       0.00000476       0.00000078
Nb       0.00216994       6.63555716       6.63555716       0.00000141       0.00000114       0.00000114
Nb       1.66043739       8.29941955       8.29941955       0.00000060       0.00000032       0.00000032
Nb       0.00062264       6.64130109       9.96264339      -0.00000013      -0.00000054       0.00000014
Nb       1.66044025       8.29942319      11.62586579       0.00000000      -0.00000040       0.00000024
Nb       0.00217468       6.63556297      13.28972933       0.00000068      -0.00000045      -0.00000023
Nb       1.66044133       8.30163484      14.94339219       0.00000002       0.00000322       0.00000001
Nb      -0.00270921       9.96264857      -0.00270921       0.00000367      -0.00000107       0.00000367
Nb       1.66044252      11.61525112       1.66044252      -0.00000048       0.00000645      -0.00000048
Nb      -0.00271196       9.96264520       3.32359330       0.00000403      -0.00000040      -0.00000404
Nb       1.66043990      11.62365519       4.98189685       0.00000008      -0.00000377      -0.00000018
Nb       0.00062264       9.96264339       6.64130109      -0.00000013       0.00000014      -0.00000054
Nb       1.66044025      11.62586579       8.29942319       0.00000000       0.00000024      -0.00000040
Nb       0.00126646       9.96264568       9.96264568      -0.00000356      -0.00000014      -0.00000014
Nb       1.66044292      11.62586938      11.62586938      -0.00000033      -0.00000061      -0.00000061
Nb       0.00062707       9.96264885      13.28399034      -0.00000086      -0.00000088       0.00000030
Nb       1.66044426      11.62366096      14.94339565      -0.00000043      -0.00000498      -0.00000071
Nb      -0.00321638      13.28542294      -0.00321638      -0.00000024       0.00000000      -0.00000024
Nb       1.66044426      14.88413060       1.66044426      -0.00000070       0.00000354      -0.00000070
Nb      -0.00321954      13.28541915       3.32410673       0.00000037       0.00000086      -0.00000145
Nb       1.66044102      14.98191084       4.94337912      -0.00000009       0.00000333      -0.00000389
Nb       0.00217468      13.28972933       6.63556297       0.00000068      -0.00000023      -0.00000045
Nb       1.66044133      14.94339219       8.30163484       0.00000002       0.00000001       0.00000322
Nb       0.00062707      13.28399034       9.96264885      -0.00000086       0.00000030      -0.00000088
Nb       1.66044426      14.94339565      11.62366096      -0.00000043      -0.00000071      -0.00000498
Nb       0.00217937      13.28973500      13.28973500       0.00000003      -0.00000146      -0.00000146
Nb       1.66044615      14.98191790      14.98191790      -0.00000088       0.00000128       0.00000128
Nb       3.27044152       0.05044634       0.05044634      -0.00000186      -0.00000045      -0.00000045
Nb       5.04115983       1.66043815       1.66043815      -0.00000401       0.00000036       0.00000036
Nb       3.27043664       0.05044090       3.27043664      -0.00000040       0.00000148      -0.00000040
Nb       4.94337173       1.66043553       4.94337173      -0.00000117       0.00000092      -0.00000117
Nb       3.32410148      -0.00322500       6.63987113      -0.00000049       0.00000131      -0.00000119
Nb       4.98189327       1.66043669       8.30162893       0.00000078       0.00000079       0.00000476
Nb       3.32359330      -0.00271196       9.96264520      -0.00000404       0.00000403      -0.00000040
Nb       4.98189685       1.66043990      11.62365519      -0.00000018       0.00000008      -0.00000377
Nb       3.32410673      -0.00321954      13.28541915      -0.00000145       0.00000037       0.00000086
Nb       4.94337912       1.66044102      14.98191084      -0.00000389      -0.00000009       0.00000333
Nb       3.27043664       3.27043664       0.05044090      -0.00000040      -0.00000040       0.00000148
Nb       4.94337173       4.94337173       1.66043553      -0.00000117      -0.00000117       0.00000092
Nb       3.27043154       3.27043154       3.27043154       0.00000148       0.00000148       0.00000148
Nb       4.97033848       4.97033848       4.97033848      -0.00000052      -0.00000052      -0.00000052
Nb       3.32409800       3.32409800       6.63986699       0.00000031       0.00000031       0.00000021
Nb       4.98154008       4.98154008       8.29685636       0.00000206       0.00000206       0.00000319
Nb       3.32359051       3.32359051       9.96264164      -0.00000351      -0.00000351       0.00000041
Nb       4.98154359       4.98154359      11.62842189       0.00000107       0.00000107      -0.00000071
Nb       3.32410390       3.32410390      13.28541573      -0.00000115      -0.00000115       0.00000142
Nb       4.97034473       4.97034473      14.95493934      -0.00000263      -0.00000263       0.00000348
Nb       3.32410148       6.63987113      -0.00322500      -0.00000049      -0.00000119       0.00000131
Nb       4.98189327       8.30162893       1.66043669       0.00000078       0.00000476       0.00000079
Nb       3.32409800       6.63986699       3.32409800       0.00000031       0.00000021       0.00000031
Nb       4.98154008       8.29685636       4.98154008       0.00000206       0.00000319       0.00000206
Nb       3.31870132       6.63555388       6.63555388       0.00000064       0.00000191       0.00000191
Nb       4.98065030       8.30191783       8.30191783      -0.00000051       0.00000053       0.00000053
Nb       3.32025349       6.64129832       9.96264021       0.00000113      -0.00000028       0.00000073
Nb       4.98065321       8.30192130      11.62336252      -0.00000088      -0.00000022       0.00000112
Nb       3.31870653       6.63556009      13.28972613      -0.00000062       0.00000003       0.00000047
Nb       4.98154493       8.29686205      14.94374039       0.00000112       0.00000180      -0.00000022
Nb       3.32359330       9.96264520      -0.00271196      -0.00000404      -0.00000040       0.00000403
Nb       4.98189685      11.62365519       1.66043990      -0.00000018      -0.00000377       0.00000008
Nb       3.32359051       9.96264164       3.32359051      -0.00000351       0.00000041      -0.00000351
Nb       4.98154359      11.62842189       4.98154359       0.00000107      -0.00000071       0.00000107
Nb       3.32025349       9.96264021       6.64129832       0.00000113       0.00000073      -0.00000028
Nb       4.98065321      11.62336252       8.30192130      -0.00000088       0.00000112      -0.00000022
Nb       3.31961378       9.96264291       9.96264291       0.00000356       0.00000025       0.00000025
Nb       4.98065592      11.62336592      11.62336592      -0.00000129       0.00000034       0.00000034
Nb       3.32025791       9.96264599      13.28398752       0.00000044      -0.00000055       0.00000078
Nb       4.98154793      11.62842747      14.94374360       0.00000054      -0.00000202      -0.00000092
Nb       3.32410673      13.28541915      -0.00321954      -0.00000145       0.00000086       0.00000037
Nb       4.94337912      14.98191084       1.66044102      -0.00000389       0.00000333      -0.00000009
Nb       3.32410390      13.28541573       3.32410390      -0.00000115       0.00000142      -0.00000115
Nb       4.97034473      14.95493934       4.97034473      -0.00000263       0.00000348      -0.00000263
Nb       3.31870653      13.28972613       6.63556009      -0.00000062       0.00000047       0.00000003
Nb       4.98154493      14.94374039       8.29686205       0.00000112      -0.00000022       0.00000180
Nb       3.32025791      13.28398752       9.96264599       0.00000044       0.00000078      -0.00000055
Nb       4.98154793      14.94374360      11.62842747       0.00000054      -0.00000092      -0.00000202
Nb       3.31871091      13.28973209      13.28973209      -0.00000120      -0.00000103      -0.00000103
Nb       4.97034974      14.95494483      14.95494483      -0.00000353       0.00000255       0.00000255
Nb       6.63987448      -0.00322184      -0.00322184      -0.00000189       0.00000076       0.00000076
Nb       8.31003952       1.66043914       1.66043914      -0.00000705       0.00000029       0.00000029
Nb       6.63987113      -0.00322500       3.32410148      -0.00000119       0.00000131      -0.00000049
Nb       8.30162893       1.66043669       4.98189327       0.00000476       0.00000079       0.00000078
Nb       6.63555716       0.00216994       6.63555716       0.00000114       0.00000141       0.00000114
Nb       8.29941955       1.66043739       8.29941955       0.00000032       0.00000060       0.00000032
Nb       6.64130109       0.00062264       9.96264339      -0.00000054      -0.00000013       0.00000014
Nb       8.29942319       1.66044025      11.62586579      -0.00000040       0.00000000       0.00000024
Nb       6.63556297       0.00217468      13.28972933      -0.00000045       0.00000068      -0.00000023
Nb       8.30163484       1.66044133      14.94339219       0.00000322       0.00000002       0.00000001
Nb       6.63987113       3.32410148      -0.00322500      -0.00000119      -0.00000049       0.00000131
Nb       8.30162893       4.98189327       1.66043669       0.00000476       0.00000078       0.00000079
Nb       6.63986699       3.32409800       3.32409800       0.00000021       0.00000031       0.00000031
Nb       8.29685636       4.98154008       4.98154008       0.00000319       0.00000206       0.00000206
Nb       6.63555388       3.31870132       6.63555388       0.00000191       0.00000064       0.00000191
Nb       8.30191783       4.98065030       8.30191783       0.00000053      -0.00000051       0.00000053
Nb       6.64129832       3.32025349       9.96264021      -0.00000028       0.00000113       0.00000073
Nb       8.30192130       4.98065321      11.62336252      -0.00000022      -0.00000088       0.00000112
Nb       6.63556009       3.31870653      13.28972613       0.00000003      -0.00000062       0.00000047
Nb       8.29686205       4.98154493      14.94374039       0.00000180       0.00000112      -0.00000022
Nb       6.63555716       6.63555716       0.00216994       0.00000114       0.00000114       0.00000141
Nb       8.29941955       8.29941955       1.66043739       0.00000032       0.00000032       0.00000060
Nb       6.63555388       6.63555388       3.31870132       0.00000191       0.00000191       0.00000064
Nb       8.30191783       8.30191783       4.98065030       0.00000053       0.00000053      -0.00000051
Nb       6.64209905       6.64209905       6.64209905       0.00000339       0.00000339       0.00000339
Nb       8.30224651       8.30224651       8.30224651      -0.00000128      -0.00000128      -0.00000128
Nb       6.64084620       6.64084620       9.96263913       0.00000033       0.00000033       0.00000095
Nb       8.30224950       8.30224950      11.62303547      -0.00000187      -0.00000187       0.00000253
Nb       6.64210433       6.64210433      13.28317920       0.00000228       0.00000228      -0.00000112
Nb       8.30192259       8.30192259      14.94463180      -0.00000013      -0.00000013       0.00000152
Nb       6.64130109       9.96264339       0.00062264      -0.00000054       0.00000014      -0.00000013
Nb       8.29942319      11.62586579       1.66044025      -0.00000040       0.00000024       0.00000000
Nb       6.64129832       9.96264021       3.32025349      -0.00000028       0.00000073       0.00000113
Nb       8.30192130      11.62336252       4.98065321      -0.00000022       0.00000112      -0.00000088
Nb       6.64084620       9.96263913       6.64084620       0.00000033       0.00000095       0.00000033
Nb       8.30224950      11.62303547       8.30224950      -0.00000187       0.00000253      -0.00000187
Nb       6.64134033       9.96264171       9.96264171      -0.00000044       0.00000044       0.00000044
Nb       8.30225222      11.62303838      11.62303838      -0.00000218       0.00000192       0.00000192
Nb       6.64085069       9.96264427      13.28443722      -0.00000036       0.00000007       0.00000067
Nb       8.30192572      11.62336729      14.94463468      -0.00000075       0.00000015       0.00000087
Nb       6.63556297      13.28972933       0.00217468      -0.00000045      -0.00000023       0.00000068
Nb       8.30163484      14.94339219       1.66044133       0.00000322       0.00000001       0.00000002
Nb       6.63556009      13.28972613       3.31870653       0.00000003       0.00000047      -0.00000062
Nb       8.29686205      14.94374039       4.98154493       0.00000180      -0.00000022       0.00000112
Nb       6.64210433      13.28317920       6.64210433       0.00000228      -0.00000112       0.00000228
Nb       8.30192259      14.94463180       8.30192259      -0.00000013       0.00000152      -0.00000013
Nb       6.64085069      13.28443722       9.96264427      -0.00000036       0.00000067       0.00000007
Nb       8.30192572      14.94463468      11.62336729      -0.00000075       0.00000087       0.00000015
Nb       6.64210893      13.28318426      13.28318426       0.00000160      -0.00000224      -0.00000224
Nb       8.29686719      14.94374502      14.94374502       0.00000084      -0.00000102      -0.00000102
Nb       9.96264857      -0.00270921      -0.00270921      -0.00000107       0.00000367       0.00000367
Nb      11.61525112       1.66044252       1.66044252       0.00000645      -0.00000048      -0.00000048
Nb       9.96264520      -0.00271196       3.32359330      -0.00000040       0.00000403      -0.00000404
Nb      11.62365519       1.66043990       4.98189685      -0.00000377       0.00000008      -0.00000018
Nb       9.96264339       0.00062264       6.64130109       0.00000014      -0.00000013      -0.00000054
Nb      11.62586579       1.66044025       8.29942319       0.00000024       0.00000000      -0.00000040
Nb       9.96264568       0.00126646       9.96264568      -0.00000014      -0.00000356      -0.00000014
Nb      11.62586938       1.66044292      11.62586938      -0.00000061      -0.00000033      -0.00000061
Nb       9.96264885       0.00062707      13.28399034      -0.00000088      -0.00000086       0.00000030
Nb      11.62366096       1.66044426      14.94339565      -0.00000498      -0.00000043      -0.00000071
Nb       9.96264520       3.32359330      -0.00271196      -0.00000040      -0.00000404       0.00000403
Nb      11.62365519       4.98189685       1.66043990      -0.00000377      -0.00000018       0.00000008
Nb       9.96264164       3.32359051       3.32359051       0.00000041      -0.00000351      -0.00000351
Nb      11.62842189       4.98154359       4.98154359      -0.00000071       0.00000107       0.00000107
Nb       9.96264021       3.32025349       6.64129832       0.00000073       0.00000113      -0.00000028
Nb      11.62336252       4.98065321       8.30192130       0.00000112      -0.00000088      -0.00000022
Nb       9.96264291       3.31961378       9.96264291       0.00000025       0.00000356       0.00000025
Nb      11.62336592       4.98065592      11.62336592       0.00000034      -0.00000129       0.00000034
Nb       9.96264599       3.32025791      13.28398752      -0.00000055       0.00000044       0.00000078
Nb      11.62842747       4.98154793      14.94374360      -0.00000202       0.00000054      -0.00000092
Nb       9.96264339       6.64130109       0.00062264       0.00000014      -0.00000054      -0.00000013
Nb      11.62586579       8.29942319       1.66044025       0.00000024      -0.00000040       0.00000000
Nb       9.96264021       6.64129832       3.32025349       0.00000073      -0.00000028       0.00000113
Nb      11.62336252       8.30192130       4.98065321       0.00000112      -0.00000022      -0.00000088
Nb       9.96263913       6.64084620       6.64084620       0.00000095       0.00000033       0.00000033
Nb      11.62303547       8.30224950       8.30224950       0.00000253      -0.00000187      -0.00000187
Nb       9.96264171       6.64134033       9.96264171       0.00000044      -0.00000044       0.00000044
Nb      11.62303838       8.30225222      11.62303838       0.00000192      -0.00000218       0.00000192
Nb       9.96264427       6.64085069      13.28443722       0.00000007      -0.00000036       0.00000067
Nb      11.62336729       8.30192572      14.94463468       0.00000015      -0.00000075       0.00000087
Nb       9.96264568       9.96264568       0.00126646      -0.00000014      -0.00000014      -0.00000356
Nb      11.62586938      11.62586938       1.66044292      -0.00000061      -0.00000061      -0.00000033
Nb       9.96264291       9.96264291       3.31961378       0.00000025       0.00000025       0.00000356
Nb      11.62336592      11.62336592       4.98065592       0.00000034       0.00000034      -0.00000129
Nb       9.96264171       9.96264171       6.64134033       0.00000044       0.00000044      -0.00000044
Nb      11.62303838      11.62303838       8.30225222       0.00000192       0.00000192      -0.00000218
Nb       9.96264378       9.96264378       9.96264378       0.00000018       0.00000018       0.00000018
Nb      11.62304118      11.62304118      11.62304118       0.00000133       0.00000133       0.00000133
Nb       9.96264623       9.96264623      13.28394736      -0.00000036      -0.00000036       0.00000016
Nb      11.62337039      11.62337039      14.94463742      -0.00000026      -0.00000026       0.00000044
Nb       9.96264885      13.28399034       0.00062707      -0.00000088       0.00000030      -0.00000086
Nb      11.62366096      14.94339565       1.66044426      -0.00000498      -0.00000071      -0.00000043
Nb       9.96264599      13.28398752       3.32025791      -0.00000055       0.00000078       0.00000044
Nb      11.62842747      14.94374360       4.98154793      -0.00000202      -0.00000092       0.00000054
Nb       9.96264427      13.28443722       6.64085069       0.00000007       0.00000067      -0.00000036
Nb      11.62336729      14.94463468       8.30192572       0.00000015       0.00000087      -0.00000075
Nb       9.96264623      13.28394736       9.96264623      -0.00000036       0.00000016      -0.00000036
Nb      11.62337039      14.94463742      11.62337039      -0.00000026       0.00000044      -0.00000026
Nb       9.96264896      13.28444170      13.28444170      -0.00000064      -0.00000013      -0.00000013
Nb      11.62843260      14.94374816      14.94374816      -0.00000294      -0.00000167      -0.00000167
Nb      13.28542294      -0.00321638      -0.00321638       0.00000000      -0.00000024      -0.00000024
Nb      14.88413060       1.66044426       1.66044426       0.00000354      -0.00000070      -0.00000070
Nb      13.28541915      -0.00321954       3.32410673       0.00000086       0.00000037      -0.00000145
Nb      14.98191084       1.66044102       4.94337912       0.00000333      -0.00000009      -0.00000389
Nb      13.28972933       0.00217468       6.63556297      -0.00000023       0.00000068      -0.00000045
Nb      14.94339219       1.66044133       8.30163484       0.00000001       0.00000002       0.00000322
Nb      13.28399034       0.00062707       9.96264885       0.00000030      -0.00000086      -0.00000088
Nb      14.94339565       1.66044426      11.62366096      -0.00000071      -0.00000043      -0.00000498
Nb      13.28973500       0.00217937      13.28973500      -0.00000146       0.00000003      -0.00000146
Nb      14.98191790       1.66044615      14.98191790       0.00000128      -0.00000088       0.00000128
Nb      13.28541915       3.32410673      -0.00321954       0.00000086      -0.00000145       0.00000037
Nb      14.98191084       4.94337912       1.66044102       0.00000333      -0.00000389      -0.00000009
Nb      13.28541573       3.32410390       3.32410390       0.00000142      -0.00000115      -0.00000115
Nb      14.95493934       4.97034473       4.97034473       0.00000348      -0.00000263      -0.00000263
Nb      13.28972613       3.31870653       6.63556009       0.00000047      -0.00000062       0.00000003
Nb      14.94374039       4.98154493       8.29686205      -0.00000022       0.00000112       0.00000180
Nb      13.28398752       3.32025791       9.96264599       0.00000078       0.00000044      -0.00000055
Nb      14.94374360       4.98154793      11.62842747      -0.00000092       0.00000054      -0.00000202
Nb      13.28973209       3.31871091      13.28973209      -0.00000103      -0.00000120      -0.00000103
Nb      14.95494483       4.97034974      14.95494483       0.00000255      -0.00000353       0.00000255
Nb      13.28972933       6.63556297       0.00217468      -0.00000023      -0.00000045       0.00000068
Nb      14.94339219       8.30163484       1.66044133       0.00000001       0.00000322       0.00000002
Nb      13.28972613       6.63556009       3.31870653       0.00000047       0.00000003      -0.00000062
Nb      14.94374039       8.29686205       4.98154493      -0.00000022       0.00000180       0.00000112
Nb      13.28317920       6.64210433       6.64210433      -0.00000112       0.00000228       0.00000228
Nb      14.94463180       8.30192259       8.30192259       0.00000152      -0.00000013      -0.00000013
Nb      13.28443722       6.64085069       9.96264427       0.00000067      -0.00000036       0.00000007
Nb      14.94463468       8.30192572      11.62336729       0.00000087      -0.00000075       0.00000015
Nb      13.28318426       6.64210893      13.28318426      -0.00000224       0.00000160      -0.00000224
Nb      14.94374502       8.29686719      14.94374502      -0.00000102       0.00000084      -0.00000102
Nb      13.28399034       9.96264885       0.00062707       0.00000030      -0.00000088      -0.00000086
Nb      14.94339565      11.62366096       1.66044426      -0.00000071      -0.00000498      -0.00000043
Nb      13.28398752       9.96264599       3.32025791       0.00000078      -0.00000055       0.00000044
Nb      14.94374360      11.62842747       4.98154793      -0.00000092      -0.00000202       0.00000054
Nb      13.28443722       9.96264427       6.64085069       0.00000067       0.00000007      -0.00000036
Nb      14.94463468      11.62336729       8.30192572       0.00000087       0.00000015      -0.00000075
Nb      13.28394736       9.96264623       9.96264623       0.00000016      -0.00000036      -0.00000036
Nb      14.94463742      11.62337039      11.62337039       0.00000044      -0.00000026      -0.00000026
Nb      13.28444170       9.96264896      13.28444170      -0.00000013      -0.00000064      -0.00000013
Nb      14.94374816      11.62843260      14.94374816      -0.00000167      -0.00000294      -0.00000167
Nb      13.28973500      13.28973500       0.00217937      -0.00000146      -0.00000146       0.00000003
Nb      14.98191790      14.98191790       1.66044615       0.00000128       0.00000128      -0.00000088
Nb      13.28973209      13.28973209       3.31871091      -0.00000103      -0.00000103      -0.00000120
Nb      14.95494483      14.95494483       4.97034974       0.00000255       0.00000255      -0.00000353
Nb      13.28318426      13.28318426       6.64210893      -0.00000224      -0.00000224       0.00000160
Nb      14.94374502      14.94374502       8.29686719      -0.00000102      -0.00000102       0.00000084
Nb      13.28444170      13.28444170       9.96264896      -0.00000013      -0.00000013      -0.00000064
Nb      14.94374816      14.94374816      11.62843260      -0.00000167      -0.00000167      -0.00000294
Nb      13.28318901      13.28318901      13.28318901      -0.00000312      -0.00000312      -0.00000312
Nb      14.95495024      14.95495024      14.95495024       0.00000156       0.00000156       0.00000156
249
Lattice="16.604407373309908 0.0 0.0 0.0 16.604407373309908 0.0 0.0 0.0 16.604407373309908" Properties=species:S:1:pos:R:3:forces:R:3 energy=-2504.5068157220894 pbc="T T T"
Nb       0.11745791       0.11745791       0.11745791      -0.10705957      -0.10705957      -0.10705957
Nb       0.04363452       0.04363452       3.31060167       0.01552267       0.01552267      -0.03211330
Nb       1.66188491       1.66188491       5.05114603      -0.00179365      -0.00179365      -0.00495004
Nb      -0.00625205      -0.00625205       6.65282133       0.00254505       0.00254505      -0.00097954
Nb       1.65991609       1.65991609       8.31559914       0.00031294       0.00031294       0.00118380
Nb      -0.00127341      -0.00127341       9.97355431       0.00211477       0.00211477       0.00195164
Nb       1.66443891       1.66443891      11.61898863       0.00146871       0.00146871       0.00336612
Nb       0.01291119       0.01291119      13.29863390      -0.00165573      -0.00165573       0.00954904
Nb       1.67449595       1.67449595      14.88988784      -0.00134718      -0.00134718       0.00375852
Nb       0.04363452       3.31060167       0.04363452       0.01552267      -0.03211330       0.01552267
Nb       1.66188491       5.05114603       1.66188491      -0.00179365      -0.00495004      -0.00179365
Nb       0.06288824       3.25796240       3.25796240      -0.01513497       0.02898934       0.02898934
Nb       1.65650299       4.94171995       4.94171995       0.00489875       0.00236565       0.00236565
Nb      -0.00334085       3.32289940       6.64428337      -0.00086274       0.00073087       0.00107348
Nb       1.65927003       4.98197612       8.30149151      -0.00009661      -0.00000957       0.00083477
Nb      -0.00354050       3.32546008       9.96508432       0.00127344       0.00102463       0.00254565
Nb       1.65933582       4.98609492      11.62221507       0.00111489       0.00155642       0.00114373
Nb      -0.00273538       3.33600430      13.28848981       0.00684560       0.00091380       0.00050389
Nb       1.66514453       4.95654219      14.97767022      -0.00476657      -0.00309612       0.00555509
Nb      -0.00625205       6.65282133      -0.00625205       0.00254505      -0.00097954       0.00254505
Nb       1.65991609       8.31559914       1.65991609       0.00031294       0.00118380       0.00031294
Nb      -0.00334085       6.64428337       3.32289940      -0.00086274       0.00107348       0.00073087
Nb       1.65927003       8.30149151       4.98197612      -0.00009661       0.00083477      -0.00000957
Nb       0.00087935       6.63227904       6.63227904      -0.00053782       0.00328877       0.00328877
Nb       1.65875736       8.29927280       8.29927280      -0.00067458       0.00024810       0.00024810
Nb      -0.00128013       6.64369727       9.96117747      -0.00033110       0.00125479       0.00069061
Nb       1.65889509       8.30437912      11.62476725      -0.00012454       0.00078975       0.00103047
Nb       0.00039871       6.64750227      13.28535971       0.00027826      -0.00044125       0.00310669
Nb       1.65985567       8.31020781      14.94163099       0.00017213       0.00103297       0.00153818
Nb      -0.00127341       9.97355431      -0.00127341       0.00211477       0.00195164       0.00211477
Nb       1.66443891      11.61898863       1.66443891       0.00146871       0.00336612       0.00146871
Nb      -0.00354050       9.96508432       3.32546008       0.00127344       0.00254565       0.00102463
Nb       1.65933582      11.62221507       4.98609492       0.00111489       0.00114373       0.00155642