249
Lattice="16.01790491339795 0.0 0.0 0.0 16.01790491339795 0.0 0.0 0.0 16.01790491339795" Properties=species:S:1:pos:R:3:forces:R:3 energy=-3158.082905249628 pbc="T T T"
W        0.06658311       0.06658311       0.06658311      -0.00000033      -0.00000033      -0.00000033
W        0.06658311       0.06658311       3.13699787      -0.00000033      -0.00000033       0.00000033
W        1.60179049       1.60179049       4.79748852       0.00000000      -0.00000000       0.00000027
W       -0.00222894      -0.00222894       6.39063485       0.00000017       0.00000017       0.00000107
W        1.60179049       1.60179049       8.00617024      -0.00000000      -0.00000000       0.00000335
W        0.00080871       0.00080871       9.61074295      -0.00000172      -0.00000172       0.00000000
W        1.60179049       1.60179049      11.21531566      -0.00000000      -0.00000000      -0.00000335
W       -0.00222894      -0.00222894      12.83085104       0.00000017       0.00000017      -0.00000107
W        1.60179049       1.60179049      14.42399737      -0.00000000      -0.00000000      -0.00000027
W        0.06658311       3.13699787       0.06658311      -0.00000033       0.00000033      -0.00000033
W        1.60179049       4.79748852       1.60179049      -0.00000000       0.00000027       0.00000000
W        0.06658311       3.13699787       3.13699787      -0.00000033       0.00000033       0.00000033
W        1.60179049       4.79946316       4.79946316      -0.00000000      -0.00000170      -0.00000170
W       -0.00222894       3.20580992       6.39063485       0.00000017      -0.00000017       0.00000107
W        1.60179049       4.80144095       8.00711108      -0.00000000      -0.00000173       0.00000131
W        0.00080871       3.20277227       9.61074295      -0.00000172       0.00000172       0.00000000
W        1.60179049       4.80144095      11.21437482      -0.00000000      -0.00000173      -0.00000131
W       -0.00222894       3.20580992      12.83085104       0.00000017      -0.00000017      -0.00000107
W        1.60179049       4.79946316      14.42202273      -0.00000000      -0.00000170       0.00000170
W       -0.00222894       6.39063485      -0.00222894       0.00000017       0.00000107       0.00000017
W        1.60179049       8.00617024       1.60179049       0.00000000       0.00000335       0.00000000
W       -0.00222894       6.39063485       3.20580992       0.00000017       0.00000107      -0.00000017
W        1.60179049       8.00711108       4.80144095       0.00000000       0.00000131      -0.00000173
W        0.00324589       6.40757746       6.40757746       0.00000095       0.00000054       0.00000054
W        1.60179049       8.00974048       8.00974048       0.00000000      -0.00000016      -0.00000016
W        0.00074848       6.40441313       9.61074295      -0.00000003       0.00000398       0.00000000
W        1.60179049       8.00974048      11.21174541      -0.00000000      -0.00000016       0.00000016
W        0.00324589       6.40757746      12.81390843       0.00000095       0.00000054      -0.00000054
W        1.60179049       8.00711108      14.42004495      -0.00000000       0.00000131       0.00000173
W        0.00080871       9.61074295       0.00080871      -0.00000172      -0.00000000      -0.00000172
W        1.60179049      11.21531566       1.60179049       0.00000000      -0.00000335      -0.00000000
W        0.00080871       9.61074295       3.20277227      -0.00000172      -0.00000000       0.00000172
W        1.60179049      11.21437482       4.80144095       0.00000000      -0.00000131      -0.00000173
W        0.00074848       9.61074295       6.40441313      -0.00000003       0.00000000       0.00000398
W        1.60179049      11.21174541       8.00974048       0.00000000       0.00000016      -0.00000016
W       -0.00332484       9.61074295       9.61074295      -0.00000253      -0.00000000       0.00000000
W        1.60179049      11.21174541      11.21174541       0.00000000       0.00000016       0.00000016
W        0.00074848       9.61074295      12.81707276      -0.00000003      -0.00000000      -0.00000398
W        1.60179049      11.21437482      14.42004495       0.00000000      -0.00000131       0.00000173
W       -0.00222894      12.83085104      -0.00222894       0.00000017      -0.00000107       0.00000017
W        1.60179049      14.42399737       1.60179049       0.00000000      -0.00000027       0.00000000
W       -0.00222894      12.83085104       3.20580992       0.00000017      -0.00000107      -0.00000017
W        1.60179049      14.42202273       4.79946316       0.00000000       0.00000170      -0.00000170
W        0.00324589      12.81390843       6.40757746       0.00000095      -0.00000054       0.00000054
W        1.60179049      14.42004495       8.00711108       0.00000000       0.00000173       0.00000131
W        0.00074848      12.81707276       9.61074295      -0.00000003      -0.00000398       0.00000000
W        1.60179049      14.42004495      11.21437482      -0.00000000       0.00000173      -0.00000131
W        0.00324589      12.81390843      12.81390843       0.00000095      -0.00000054      -0.00000054
W        1.60179049      14.42202273      14.42202273      -0.00000000       0.00000170       0.00000170
W        3.13699787       0.06658311       0.06658311       0.00000033      -0.00000033      -0.00000033
W        4.79748852       1.60179049       1.60179049       0.00000027      -0.00000000       0.00000000
W        3.13699787       0.06658311       3.13699787       0.00000033      -0.00000033       0.00000033
W        4.79946316       1.60179049       4.79946316      -0.00000170       0.00000000      -0.00000170
W        3.20580992      -0.00222894       6.39063485      -0.00000017       0.00000017       0.00000107
W        4.80144095       1.60179049       8.00711108      -0.00000173      -0.00000000       0.00000131
W        3.20277227       0.00080871       9.61074295       0.00000172      -0.00000172      -0.00000000
W        4.80144095       1.60179049      11.21437482      -0.00000173      -0.00000000      -0.00000131
W        3.20580992      -0.00222894      12.83085104      -0.00000017       0.00000017      -0.00000107
W        4.79946316       1.60179049      14.42202273      -0.00000170      -0.00000000       0.00000170
W        3.13699787       3.13699787       0.06658311       0.00000033       0.00000033      -0.00000033
W        4.79946316       4.79946316       1.60179049      -0.00000170      -0.00000170       0.00000000
W        3.13699787       3.13699787       3.13699787       0.00000033       0.00000033       0.00000033
W        4.77856920       4.77856920       4.77856920       0.00000075       0.00000075       0.00000075
W        3.20580992       3.20580992       6.39063485      -0.00000017      -0.00000017       0.00000107
W        4.80300051       4.80300051       8.00230672      -0.00000176      -0.00000176       0.00000087
W        3.20277227       3.20277227       9.61074295       0.00000172       0.00000172      -0.00000000
W        4.80300051       4.80300051      11.21917918      -0.00000176      -0.00000176      -0.00000087
W        3.20580992       3.20580992      12.83085104      -0.00000017      -0.00000017      -0.00000107
W        4.77856920       4.77856920      14.44291670       0.00000075       0.00000075      -0.00000075
W        3.20580992       6.39063485      -0.00222894      -0.00000017       0.00000107       0.00000017
W        4.80144095       8.00711108       1.60179049      -0.00000173       0.00000131       0.00000000
W        3.20580992       6.39063485       3.20580992      -0.00000017       0.00000107      -0.00000017
W        4.80300051       8.00230672       4.80300051      -0.00000176       0.00000087      -0.00000176
W        3.20033509       6.40757746       6.40757746      -0.00000095       0.00000054       0.00000054
W        4.80584024       8.00784079       8.00784079      -0.00000008      -0.00000176      -0.00000176
W        3.20283250       6.40441313       9.61074295       0.00000003       0.00000398      -0.00000000
W        4.80584024       8.00784079      11.21364511      -0.00000008      -0.00000176       0.00000176
W        3.20033509       6.40757746      12.81390843      -0.00000095       0.00000054      -0.00000054
W        4.80300051       8.00230672      14.41848539      -0.00000176       0.00000087       0.00000176
W        3.20277227       9.61074295       0.00080871       0.00000172       0.00000000      -0.00000172
W        4.80144095      11.21437482       1.60179049      -0.00000173      -0.00000131       0.00000000
W        3.20277227       9.61074295       3.20277227       0.00000172       0.00000000       0.00000172
W        4.80300051      11.21917918       4.80300051      -0.00000176      -0.00000087      -0.00000176
W        3.20283250       9.61074295       6.40441313       0.00000003       0.00000000       0.00000398
W        4.80584024      11.21364511       8.00784079      -0.00000008       0.00000176      -0.00000176
W        3.20690583       9.61074295       9.61074295       0.00000253       0.00000000      -0.00000000
W        4.80584024      11.21364511      11.21364511      -0.00000008       0.00000176       0.00000176
W        3.20283250       9.61074295      12.81707276       0.00000003       0.00000000      -0.00000398
W        4.80300051      11.21917918      14.41848539      -0.00000176      -0.00000087       0.00000176
W        3.20580992      12.83085104      -0.00222894      -0.00000017      -0.00000107       0.00000017
W        4.79946316      14.42202273       1.60179049      -0.00000170       0.00000170       0.00000000
W        3.20580992      12.83085104       3.20580992      -0.00000017      -0.00000107      -0.00000017
W        4.77856920      14.44291670       4.77856920       0.00000075      -0.00000075       0.00000075
W        3.20033509      12.81390843       6.40757746      -0.00000095      -0.00000054       0.00000054
W        4.80300051      14.41848539       8.00230672      -0.00000176       0.00000176       0.00000087
W        3.20283250      12.81707276       9.61074295       0.00000003      -0.00000398       0.00000000
W        4.80300051      14.41848539      11.21917918      -0.00000176       0.00000176      -0.00000087
W        3.20033509      12.81390843      12.81390843      -0.00000095      -0.00000054      -0.00000054
W        4.77856920      14.44291670      14.44291670       0.00000075      -0.00000075      -0.00000075
W        6.39063485      -0.00222894      -0.00222894       0.00000107       0.00000017       0.00000017
W        8.00617024       1.60179049       1.60179049       0.00000335       0.00000000       0.00000000
W        6.39063485      -0.00222894       3.20580992       0.00000107       0.00000017      -0.00000017
W        8.00711108       1.60179049       4.80144095       0.00000131       0.00000000      -0.00000173
W        6.40757746       0.00324589       6.40757746       0.00000054       0.00000095       0.00000054
W        8.00974048       1.60179049       8.00974048      -0.00000016       0.00000000      -0.00000016
W        6.40441313       0.00074848       9.61074295       0.00000398      -0.00000003      -0.00000000
W        8.00974048       1.60179049      11.21174541      -0.00000016      -0.00000000       0.00000016
W        6.40757746       0.00324589      12.81390843       0.00000054       0.00000095      -0.00000054
W        8.00711108       1.60179049      14.42004495       0.00000131       0.00000000       0.00000173
W        6.39063485       3.20580992      -0.00222894       0.00000107      -0.00000017       0.00000017
W        8.00711108       4.80144095       1.60179049       0.00000131      -0.00000173       0.00000000
W        6.39063485       3.20580992       3.20580992       0.00000107      -0.00000017      -0.00000017
W        8.00230672       4.80300051       4.80300051       0.00000087      -0.00000176      -0.00000176
W        6.40757746       3.20033509       6.40757746       0.00000054      -0.00000095       0.00000054
W        8.00784079       4.80584024       8.00784079      -0.00000176      -0.00000008      -0.00000176
W        6.40441313       3.20283250       9.61074295       0.00000398       0.00000003      -0.00000000
W        8.00784079       4.80584024      11.21364511      -0.00000176      -0.00000008       0.00000176
W        6.40757746       3.20033509      12.81390843       0.00000054      -0.00000095      -0.00000054
W        8.00230672       4.80300051      14.41848539       0.00000087      -0.00000176       0.00000176
W        6.40757746       6.40757746       0.00324589       0.00000054       0.00000054       0.00000095
W        8.00974048       8.00974048       1.60179049      -0.00000016      -0.00000016       0.00000000
W        6.40757746       6.40757746       3.20033509       0.00000054       0.00000054      -0.00000095
W        8.00784079       8.00784079       4.80584024      -0.00000176      -0.00000176      -0.00000008
W        6.39646720       6.39646720       6.39646720      -0.00000030      -0.00000030      -0.00000030
W        8.00558421       8.00558421       8.00558421      -0.00000059      -0.00000059      -0.00000059
W        6.40414673       6.40414673       9.61074295       0.00000007       0.00000007      -0.00000000
W        8.00558421       8.00558421      11.21590169      -0.00000059      -0.00000059       0.00000059
W        6.39646720       6.39646720      12.82501870      -0.00000030      -0.00000030       0.00000030
W        8.00784079       8.00784079      14.41564566      -0.00000176      -0.00000176       0.00000008
W        6.40441313       9.61074295       0.00074848       0.00000398      -0.00000000      -0.00000003
W        8.00974048      11.21174541       1.60179049      -0.00000016       0.00000016      -0.00000000
W        6.40441313       9.61074295       3.20283250       0.00000398      -0.00000000       0.00000003
W        8.00784079      11.21364511       4.80584024      -0.00000176       0.00000176      -0.00000008
W        6.40414673       9.61074295       6.40414673       0.00000007       0.00000000       0.00000007
W        8.00558421      11.21590169       8.00558421      -0.00000059       0.00000059      -0.00000059
W        6.40968398       9.61074295       9.61074295       0.00000021      -0.00000000      -0.00000000
W        8.00558421      11.21590169      11.21590169      -0.00000059       0.00000059       0.00000059
W        6.40414673       9.61074295      12.81733916       0.00000007       0.00000000      -0.00000007
W        8.00784079      11.21364511      14.41564566      -0.00000176       0.00000176       0.00000008
W        6.40757746      12.81390843       0.00324589       0.00000054      -0.00000054       0.00000095
W        8.00711108      14.42004495       1.60179049       0.00000131       0.00000173      -0.00000000
W        6.40757746      12.81390843       3.20033509       0.00000054      -0.00000054      -0.00000095
W        8.00230672      14.41848539       4.80300051       0.00000087       0.00000176      -0.00000176
W        6.39646720      12.82501870       6.39646720      -0.00000030       0.00000030      -0.00000030
W        8.00784079      14.41564566       8.00784079      -0.00000176       0.00000008      -0.00000176
W        6.40414673      12.81733916       9.61074295       0.00000007      -0.00000007      -0.00000000
W        8.00784079      14.41564566      11.21364511      -0.00000176       0.00000008       0.00000176
W        6.39646720      12.82501870      12.82501870      -0.00000030       0.00000030       0.00000030
W        8.00230672      14.41848539      14.41848539       0.00000087       0.00000176       0.00000176
W        9.61074295       0.00080871       0.00080871       0.00000000      -0.00000172      -0.00000172
W       11.21531566       1.60179049       1.60179049      -0.00000335       0.00000000      -0.00000000
W        9.61074295       0.00080871       3.20277227      -0.00000000      -0.00000172       0.00000172
W       11.21437482       1.60179049       4.80144095      -0.00000131      -0.00000000      -0.00000173
W        9.61074295       0.00074848       6.40441313       0.00000000      -0.00000003       0.00000398
W       11.21174541       1.60179049       8.00974048       0.00000016      -0.00000000      -0.00000016
W        9.61074295      -0.00332484       9.61074295       0.00000000      -0.00000253       0.00000000
W       11.21174541       1.60179049      11.21174541       0.00000016      -0.00000000       0.00000016
W        9.61074295       0.00074848      12.81707276       0.00000000      -0.00000003      -0.00000398
W       11.21437482       1.60179049      14.42004495      -0.00000131       0.00000000       0.00000173
W        9.61074295       3.20277227       0.00080871       0.00000000       0.00000172      -0.00000172
W       11.21437482       4.80144095       1.60179049      -0.00000131      -0.00000173      -0.00000000
W        9.61074295       3.20277227       3.20277227      -0.00000000       0.00000172       0.00000172
W       11.21917918       4.80300051       4.80300051      -0.00000087      -0.00000176      -0.00000176
W        9.61074295       3.20283250       6.40441313      -0.00000000       0.00000003       0.00000398
W       11.21364511       4.80584024       8.00784079       0.00000176      -0.00000008      -0.00000176
W        9.61074295       3.20690583       9.61074295       0.00000000       0.00000253      -0.00000000
W       11.21364511       4.80584024      11.21364511       0.00000176      -0.00000008       0.00000176
W        9.61074295       3.20283250      12.81707276       0.00000000       0.00000003      -0.00000398
W       11.21917918       4.80300051      14.41848539      -0.00000087      -0.00000176       0.00000176
W        9.61074295       6.40441313       0.00074848       0.00000000       0.00000398      -0.00000003
W       11.21174541       8.00974048       1.60179049       0.00000016      -0.00000016      -0.00000000
W        9.61074295       6.40441313       3.20283250      -0.00000000       0.00000398       0.00000003
W       11.21364511       8.00784079       4.80584024       0.00000176      -0.00000176      -0.00000008
W        9.61074295       6.40414673       6.40414673      -0.00000000       0.00000007       0.00000007
W       11.21590169       8.00558421       8.00558421       0.00000059      -0.00000059      -0.00000059
W        9.61074295       6.40968398       9.61074295       0.00000000       0.00000021       0.00000000
W       11.21590169       8.00558421      11.21590169       0.00000059      -0.00000059       0.00000059
W        9.61074295       6.40414673      12.81733916       0.00000000       0.00000007      -0.00000007
W       11.21364511       8.00784079      14.41564566       0.00000176      -0.00000176       0.00000008
W        9.61074295       9.61074295      -0.00332484      -0.00000000       0.00000000      -0.00000253
W       11.21174541      11.21174541       1.60179049       0.00000016       0.00000016      -0.00000000
W        9.61074295       9.61074295       3.20690583      -0.00000000      -0.00000000       0.00000253
W       11.21364511      11.21364511       4.80584024       0.00000176       0.00000176      -0.00000008
W        9.61074295       9.61074295       6.40968398      -0.00000000      -0.00000000       0.00000021
W       11.21590169      11.21590169       8.00558421       0.00000059       0.00000059      -0.00000059
W        9.61074295       9.61074295       9.61074295      -0.00000000       0.00000000       0.00000000
W       11.21590169      11.21590169      11.21590169       0.00000059       0.00000059       0.00000059
W        9.61074295       9.61074295      12.81180191      -0.00000000      -0.00000000      -0.00000021
W       11.21364511      11.21364511      14.41564566       0.00000176       0.00000176       0.00000008
W        9.61074295      12.81707276       0.00074848      -0.00000000      -0.00000398      -0.00000003
W       11.21437482      14.42004495       1.60179049      -0.00000131       0.00000173      -0.00000000
W        9.61074295      12.81707276       3.20283250      -0.00000000      -0.00000398       0.00000003
W       11.21917918      14.41848539       4.80300051      -0.00000087       0.00000176      -0.00000176
W        9.61074295      12.81733916       6.40414673      -0.00000000      -0.00000007       0.00000007
W       11.21364511      14.41564566       8.00784079       0.00000176       0.00000008      -0.00000176
W        9.61074295      12.81180191       9.61074295      -0.00000000      -0.00000021       0.00000000
W       11.21364511      14.41564566      11.21364511       0.00000176       0.00000008       0.00000176
W        9.61074295      12.81733916      12.81733916      -0.00000000      -0.00000007      -0.00000007
W       11.21917918      14.41848539      14.41848539      -0.00000087       0.00000176       0.00000176
W       12.83085104      -0.00222894      -0.00222894      -0.00000107       0.00000017       0.00000017
W       14.42399737       1.60179049       1.60179049      -0.00000027       0.00000000      -0.00000000
W       12.83085104      -0.00222894       3.20580992      -0.00000107       0.00000017      -0.00000017
W       14.42202273       1.60179049       4.79946316       0.00000170       0.00000000      -0.00000170
W       12.81390843       0.00324589       6.40757746      -0.00000054       0.00000095       0.00000054
W       14.42004495       1.60179049       8.00711108       0.00000173      -0.00000000       0.00000131
W       12.81707276       0.00074848       9.61074295      -0.00000398      -0.00000003       0.00000000
W       14.42004495       1.60179049      11.21437482       0.00000173       0.00000000      -0.00000131
W       12.81390843       0.00324589      12.81390843      -0.00000054       0.00000095      -0.00000054
W       14.42202273       1.60179049      14.42202273       0.00000170       0.00000000       0.00000170
W       12.83085104       3.20580992      -0.00222894      -0.00000107      -0.00000017       0.00000017
W       14.42202273       4.79946316       1.60179049       0.00000170      -0.00000170      -0.00000000
W       12.83085104       3.20580992       3.20580992      -0.00000107      -0.00000017      -0.00000017
W       14.44291670       4.77856920       4.77856920      -0.00000075       0.00000075       0.00000075
W       12.81390843       3.20033509       6.40757746      -0.00000054      -0.00000095       0.00000054
W       14.41848539       4.80300051       8.00230672       0.00000176      -0.00000176       0.00000087
W       12.81707276       3.20283250       9.61074295      -0.00000398       0.00000003       0.00000000
W       14.41848539       4.80300051      11.21917918       0.00000176      -0.00000176      -0.00000087
W       12.81390843       3.20033509      12.81390843      -0.00000054      -0.00000095      -0.00000054
W       14.44291670       4.77856920      14.44291670      -0.00000075       0.00000075      -0.00000075
W       12.81390843       6.40757746       0.00324589      -0.00000054       0.00000054       0.00000095
W       14.42004495       8.00711108       1.60179049       0.00000173       0.00000131      -0.00000000
W       12.81390843       6.40757746       3.20033509      -0.00000054       0.00000054      -0.00000095
W       14.41848539       8.00230672       4.80300051       0.00000176       0.00000087      -0.00000176
W       12.82501870       6.39646720       6.39646720       0.00000030      -0.00000030      -0.00000030
W       14.41564566       8.00784079       8.00784079       0.00000008      -0.00000176      -0.00000176
W       12.81733916       6.40414673       9.61074295      -0.00000007       0.00000007       0.00000000
W       14.41564566       8.00784079      11.21364511       0.00000008      -0.00000176       0.00000176
W       12.82501870       6.39646720      12.82501870       0.00000030      -0.00000030       0.00000030
W       14.41848539       8.00230672      14.41848539       0.00000176       0.00000087       0.00000176
W       12.81707276       9.61074295       0.00074848      -0.00000398      -0.00000000      -0.00000003
W       14.42004495      11.21437482       1.60179049       0.00000173      -0.00000131      -0.00000000
W       12.81707276       9.61074295       3.20283250      -0.00000398      -0.00000000       0.00000003
W       14.41848539      11.21917918       4.80300051       0.00000176      -0.00000087      -0.00000176
W       12.81733916       9.61074295       6.40414673      -0.00000007      -0.00000000       0.00000007
W       14.41564566      11.21364511       8.00784079       0.00000008       0.00000176      -0.00000176
W       12.81180191       9.61074295       9.61074295      -0.00000021      -0.00000000       0.00000000
W       14.41564566      11.21364511      11.21364511       0.00000008       0.00000176       0.00000176
W       12.81733916       9.61074295      12.81733916      -0.00000007      -0.00000000      -0.00000007
W       14.41848539      11.21917918      14.41848539       0.00000176      -0.00000087       0.00000176
W       12.81390843      12.81390843       0.00324589      -0.00000054      -0.00000054       0.00000095
W       14.42202273      14.42202273       1.60179049       0.00000170       0.00000170      -0.00000000
W       12.81390843      12.81390843       3.20033509      -0.00000054      -0.00000054      -0.00000095
W       14.44291670      14.44291670       4.77856920      -0.00000075      -0.00000075       0.00000075
W       12.82501870      12.82501870       6.39646720       0.00000030       0.00000030      -0.00000030
W       14.41848539      14.41848539       8.00230672       0.00000176       0.00000176       0.00000087
W       12.81733916      12.81733916       9.61074295      -0.00000007      -0.00000007       0.00000000
W       14.41848539      14.41848539      11.21917918       0.00000176       0.00000176      -0.00000087
W       12.82501870      12.82501870      12.82501870       0.00000030       0.00000030       0.00000030
W       14.44291670      14.44291670      14.44291670      -0.00000075      -0.00000075      -0.00000075
249
Lattice="16.01790491339795 0.0 0.0 0.0 16.01790491339795 0.0 0.0 0.0 16.01790491339795" Properties=species:S:1:pos:R:3:forces:R:3 energy=-3158.049902068575 pbc="T T T"
W        0.13905133       0.13905133       0.13905133      -0.18404215      -0.18404215      -0.18404215
W        0.06164084       0.06164084       3.16754690       0.01422623       0.01422623      -0.05427968
W        1.60794365       1.60794365       4.80138619      -0.00805331      -0.00805331      -0.00113525
W       -0.00142742      -0.00142742       6.40200260       0.00200638       0.00200638      -0.01208488
W        1.60243732       1.60243732       8.00575617       0.00127510       0.00127510       0.00379423
W        0.00197861       0.00197861       9.61848173       0.00369078       0.00369078      -0.00032873
W        1.60477411       1.60477411      11.20917389       0.00008100       0.00008100       0.01649515
W        0.00234269       0.00234269      12.84691694       0.00530682       0.00530682      -0.00408449
W        1.61336604       1.61336604      14.40835903      -0.00563844      -0.00563844       0.04812522
W        0.06164084       3.16754690       0.06164084       0.01422623      -0.05427968       0.01422623
W        1.60794365       4.80138619       1.60794365      -0.00805331      -0.00113525      -0.00805331
W        0.07298660       3.13000985       3.13000985      -0.00508621       0.02354769       0.02354769
W        1.59948824       4.80152624       4.80152624       0.00986184       0.00272562       0.00272562
W       -0.00257697       3.20671447       6.38836602       0.00203834       0.00331437       0.00737755
W        1.60215316       4.80264940       8.00827443       0.00171469       0.00181401       0.00155588
W        0.00111562       3.20487205       9.60851161       0.00263287       0.00067554       0.00523127
W        1.60175351       4.80375557      11.21456331       0.00469984       0.00180787       0.00139825
W        0.00139107       3.21087366      12.82935624       0.00456941      -0.00084714       0.00402886
W        1.60557580       4.80586803      14.42317227      -0.00384884      -0.00121699       0.00166234
W       -0.00142742       6.40200260      -0.00142742       0.00200638      -0.01208488       0.00200638
W        1.60243732       8.00575617       1.60243732       0.00127510       0.00379423       0.00127510
W       -0.00257697       6.38836602       3.20671447       0.00203834       0.00737755       0.00331437
W        1.60215316       8.00827443       4.80264940       0.00171469       0.00155588       0.00181401
W        0.00247691       6.40903642       6.40903642       0.00280978       0.00165592       0.00165592
W        1.60139642       8.01064644       8.01064644       0.00105292       0.00202320       0.00202320
W       -0.00001503       6.40681256       9.61190774       0.00245036       0.00076901       0.00108253
W        1.60101406       8.01212494      11.21243005       0.00170196       0.00184316       0.00090470
W        0.00370114       6.40977281      12.81574486       0.00058705       0.00197117      -0.00069640
W        1.60275601       8.01268789      14.41986602       0.00090752      -0.00281257       0.00351107
W        0.00197861       9.61848173       0.00197861       0.00369078      -0.00032873       0.00369078
W        1.60477411      11.20917389       1.60477411       0.00008100       0.01649515       0.00008100
W        0.00111562       9.60851161       3.20487205       0.00263287       0.00523127       0.00067554
W        1.60175351      11.21456331       4.80375557       0.00469984       0.00139825       0.00180787