249
Lattice="16.567226886622468 0.0 0.0 0.0 16.567226886622468 0.0 0.0 0.0 16.567226886622468" Properties=species:S:1:pos:R:3:forces:R:3 energy=-2509.1511644130296 pbc="T T T"
Nb       0.06683875       0.06683875       0.06683875       0.00000185       0.00000185       0.00000185
Nb       0.06683875       0.06683875       3.24660662       0.00000185       0.00000185      -0.00000185
Nb       1.65672269       1.65672269       5.02852978      -0.00000000      -0.00000000       0.00000160
Nb      -0.00460869      -0.00460869       6.62064176      -0.00000052      -0.00000052      -0.00000125
Nb       1.65672269       1.65672269       8.28312137      -0.00000000      -0.00000000      -0.00000086
Nb      -0.00069309      -0.00069309       9.94033613       0.00000034       0.00000034      -0.00000000
Nb       1.65672269       1.65672269      11.59755089      -0.00000000      -0.00000000       0.00000086
Nb      -0.00460870      -0.00460870      13.26003050      -0.00000052      -0.00000052       0.00000125
Nb       1.65672269       1.65672269      14.85214249      -0.00000000      -0.00000000      -0.00000159
Nb       0.06683875       3.24660662       0.06683875       0.00000185      -0.00000185       0.00000185
Nb       1.65672269       5.02852978       1.65672269      -0.00000000       0.00000160      -0.00000000
Nb       0.06683875       3.24660662       3.24660662       0.00000185      -0.00000185      -0.00000185
Nb       1.65672269       4.94347101       4.94347101       0.00000000       0.00000072       0.00000072
Nb      -0.00460869       3.31805407       6.62064176      -0.00000052       0.00000052      -0.00000125
Nb       1.65672269       4.97014448       8.28150899      -0.00000000       0.00000088       0.00000019
Nb      -0.00069309       3.31413847       9.94033613       0.00000034      -0.00000034      -0.00000000
Nb       1.65672269       4.97014448      11.59916327      -0.00000000       0.00000088      -0.00000019
Nb      -0.00460870       3.31805407      13.26003050      -0.00000052       0.00000052       0.00000125
Nb       1.65672269       4.94347101      14.93720125       0.00000000       0.00000072      -0.00000072
Nb      -0.00460869       6.62064176      -0.00460869      -0.00000052      -0.00000125      -0.00000052
Nb       1.65672269       8.28312137       1.65672269      -0.00000000      -0.00000086      -0.00000000
Nb      -0.00460869       6.62064176       3.31805407      -0.00000052      -0.00000125       0.00000052
Nb       1.65672269       8.28150899       4.97014448      -0.00000000       0.00000019       0.00000088
Nb       0.00102118       6.62197638       6.62197638       0.00000021       0.00000012       0.00000012
Nb       1.65672269       8.28191365       8.28191365      -0.00000000       0.00000251       0.00000251
Nb       0.00052711       6.62600078       9.94033613      -0.00000018      -0.00000038      -0.00000000
Nb       1.65672269       8.28191365      11.59875862      -0.00000000       0.00000251      -0.00000251
Nb       0.00102117       6.62197638      13.25869588       0.00000021       0.00000012      -0.00000012
Nb       1.65672269       8.28150899      14.91052778      -0.00000000       0.00000019      -0.00000088
Nb      -0.00069309       9.94033613      -0.00069309       0.00000034      -0.00000000       0.00000034
Nb       1.65672269      11.59755089       1.65672269      -0.00000000       0.00000086      -0.00000000
Nb      -0.00069309       9.94033613       3.31413847       0.00000034      -0.00000000      -0.00000034
Nb       1.65672269      11.59916327       4.97014448      -0.00000000      -0.00000019       0.00000088
Nb       0.00052711       9.94033613       6.62600078      -0.00000018      -0.00000000      -0.00000038
Nb       1.65672269      11.59875862       8.28191365      -0.00000000      -0.00000251       0.00000251
Nb       0.00024581       9.94033613       9.94033613      -0.00000398      -0.00000000      -0.00000000
Nb       1.65672269      11.59875862      11.59875862      -0.00000000      -0.00000251      -0.00000251
Nb       0.00052711       9.94033613      13.25467148      -0.00000018      -0.00000000       0.00000038
Nb       1.65672269      11.59916327      14.91052778      -0.00000000      -0.00000020      -0.00000088
Nb      -0.00460870      13.26003050      -0.00460870      -0.00000052       0.00000125      -0.00000052
Nb       1.65672269      14.85214249       1.65672269      -0.00000000      -0.00000159      -0.00000000
Nb      -0.00460870      13.26003050       3.31805407      -0.00000052       0.00000125       0.00000052
Nb       1.65672269      14.93720125       4.94347101       0.00000000      -0.00000072       0.00000072
Nb       0.00102117      13.25869588       6.62197638       0.00000021      -0.00000012       0.00000012
Nb       1.65672269      14.91052778       8.28150899      -0.00000000      -0.00000088       0.00000019
Nb       0.00052711      13.25467148       9.94033613      -0.00000018       0.00000038      -0.00000000
Nb       1.65672269      14.91052778      11.59916327      -0.00000000      -0.00000088      -0.00000020
Nb       0.00102117      13.25869588      13.25869588       0.00000022      -0.00000012      -0.00000012
Nb       1.65672269      14.93720125      14.93720125       0.00000000      -0.00000072      -0.00000072
Nb       3.24660662       0.06683875       0.06683875      -0.00000185       0.00000185       0.00000185
Nb       5.02852978       1.65672269       1.65672269       0.00000160      -0.00000000      -0.00000000
Nb       3.24660662       0.06683875       3.24660662      -0.00000185       0.00000185      -0.00000185
Nb       4.94347101       1.65672269       4.94347101       0.00000072       0.00000000       0.00000072
Nb       3.31805407      -0.00460869       6.62064176       0.00000052      -0.00000052      -0.00000125
Nb       4.97014448       1.65672269       8.28150899       0.00000088      -0.00000000       0.00000019
Nb       3.31413847      -0.00069309       9.94033613      -0.00000034       0.00000034      -0.00000000
Nb       4.97014448       1.65672269      11.59916327       0.00000088      -0.00000000      -0.00000019
Nb       3.31805407      -0.00460870      13.26003050       0.00000052      -0.00000052       0.00000125
Nb       4.94347101       1.65672269      14.93720125       0.00000072       0.00000000      -0.00000072
Nb       3.24660662       3.24660662       0.06683875      -0.00000185      -0.00000185       0.00000185
Nb       4.94347101       4.94347101       1.65672269       0.00000072       0.00000072       0.00000000
Nb       3.24660662       3.24660662       3.24660662      -0.00000185      -0.00000185      -0.00000185
Nb       4.94902138       4.94902138       4.94902138       0.00000062       0.00000062       0.00000062
Nb       3.31805407       3.31805407       6.62064176       0.00000052       0.00000052      -0.00000125
Nb       4.96977950       4.96977950       8.28044130      -0.00000092      -0.00000092      -0.00000130
Nb       3.31413847       3.31413847       9.94033613      -0.00000034      -0.00000034      -0.00000000
Nb       4.96977950       4.96977950      11.60023097      -0.00000093      -0.00000093       0.00000129
Nb       3.31805407       3.31805407      13.26003050       0.00000052       0.00000052       0.00000125
Nb       4.94902138       4.94902138      14.93165088       0.00000061       0.00000061      -0.00000061
Nb       3.31805407       6.62064176      -0.00460869       0.00000052      -0.00000125      -0.00000052
Nb       4.97014448       8.28150899       1.65672269       0.00000088       0.00000019      -0.00000000
Nb       3.31805407       6.62064176       3.31805407       0.00000052      -0.00000125       0.00000052
Nb       4.96977950       8.28044130       4.96977950      -0.00000092      -0.00000130      -0.00000092
Nb       3.31242420       6.62197638       6.62197638      -0.00000021       0.00000012       0.00000012
Nb       4.96966057       8.28197384       8.28197384       0.00000102       0.00000049       0.00000049
Nb       3.31291827       6.62600079       9.94033613       0.00000018      -0.00000039      -0.00000000
Nb       4.96966057       8.28197384      11.59869842       0.00000102       0.00000049      -0.00000049
Nb       3.31242420       6.62197638      13.25869588      -0.00000021       0.00000012      -0.00000012
Nb       4.96977950       8.28044130      14.91089276      -0.00000092      -0.00000130       0.00000093
Nb       3.31413847       9.94033613      -0.00069309      -0.00000034      -0.00000000       0.00000034
Nb       4.97014448      11.59916327       1.65672269       0.00000088      -0.00000019      -0.00000000
Nb       3.31413847       9.94033613       3.31413847      -0.00000034      -0.00000000      -0.00000034
Nb       4.96977950      11.60023097       4.96977950      -0.00000093       0.00000129      -0.00000093
Nb       3.31291827       9.94033613       6.62600079       0.00000018      -0.00000000      -0.00000039
Nb       4.96966057      11.59869842       8.28197384       0.00000102      -0.00000049       0.00000049
Nb       3.31319957       9.94033613       9.94033613       0.00000398      -0.00000000      -0.00000000
Nb       4.96966057      11.59869842      11.59869842       0.00000102      -0.00000049      -0.00000049
Nb       3.31291827       9.94033613      13.25467148       0.00000018      -0.00000000       0.00000039
Nb       4.96977951      11.60023096      14.91089276      -0.00000093       0.00000130       0.00000093
Nb       3.31805407      13.26003050      -0.00460870       0.00000052       0.00000125      -0.00000052
Nb       4.94347101      14.93720125       1.65672269       0.00000072      -0.00000072       0.00000000
Nb       3.31805407      13.26003050       3.31805407       0.00000052       0.00000125       0.00000052
Nb       4.94902138      14.93165088       4.94902138       0.00000061      -0.00000061       0.00000061
Nb       3.31242420      13.25869588       6.62197638      -0.00000021      -0.00000012       0.00000012
Nb       4.96977950      14.91089276       8.28044130      -0.00000092       0.00000093      -0.00000130
Nb       3.31291827      13.25467148       9.94033613       0.00000018       0.00000039      -0.00000000
Nb       4.96977951      14.91089276      11.60023096      -0.00000093       0.00000093       0.00000130
Nb       3.31242420      13.25869588      13.25869588      -0.00000022      -0.00000012      -0.00000012
Nb       4.94902138      14.93165088      14.93165088       0.00000061      -0.00000061      -0.00000061
Nb       6.62064176      -0.00460869      -0.00460869      -0.00000125      -0.00000052      -0.00000052
Nb       8.28312137       1.65672269       1.65672269      -0.00000086      -0.00000000      -0.00000000
Nb       6.62064176      -0.00460869       3.31805407      -0.00000125      -0.00000052       0.00000052
Nb       8.28150899       1.65672269       4.97014448       0.00000019      -0.00000000       0.00000088
Nb       6.62197638       0.00102118       6.62197638       0.00000012       0.00000021       0.00000012
Nb       8.28191365       1.65672269       8.28191365       0.00000251      -0.00000000       0.00000251
Nb       6.62600078       0.00052711       9.94033613      -0.00000038      -0.00000018      -0.00000000
Nb       8.28191365       1.65672269      11.59875862       0.00000251      -0.00000000      -0.00000251
Nb       6.62197638       0.00102117      13.25869588       0.00000012       0.00000021      -0.00000012
Nb       8.28150899       1.65672269      14.91052778       0.00000019      -0.00000000      -0.00000088
Nb       6.62064176       3.31805407      -0.00460869      -0.00000125       0.00000052      -0.00000052
Nb       8.28150899       4.97014448       1.65672269       0.00000019       0.00000088      -0.00000000
Nb       6.62064176       3.31805407       3.31805407      -0.00000125       0.00000052       0.00000052
Nb       8.28044130       4.96977950       4.96977950      -0.00000130      -0.00000092      -0.00000092
Nb       6.62197638       3.31242420       6.62197638       0.00000012      -0.00000021       0.00000012
Nb       8.28197384       4.96966057       8.28197384       0.00000049       0.00000102       0.00000049
Nb       6.62600079       3.31291827       9.94033613      -0.00000039       0.00000018      -0.00000000
Nb       8.28197384       4.96966057      11.59869842       0.00000049       0.00000102      -0.00000049
Nb       6.62197638       3.31242420      13.25869588       0.00000012      -0.00000021      -0.00000012
Nb       8.28044130       4.96977950      14.91089276      -0.00000130      -0.00000092       0.00000093
Nb       6.62197638       6.62197638       0.00102118       0.00000012       0.00000012       0.00000021
Nb       8.28191365       8.28191365       1.65672269       0.00000251       0.00000251      -0.00000000
Nb       6.62197638       6.62197638       3.31242420       0.00000012       0.00000012      -0.00000021
Nb       8.28197384       8.28197384       4.96966057       0.00000049       0.00000049       0.00000102
Nb       6.62103534       6.62103534       6.62103534      -0.00000112      -0.00000112      -0.00000112
Nb       8.28246477       8.28246477       8.28246477       0.00000000       0.00000000       0.00000000
Nb       6.62635030       6.62635030       9.94033613       0.00000040       0.00000040       0.00000000
Nb       8.28246477       8.28246477      11.59820749       0.00000000       0.00000000       0.00000000
Nb       6.62103534       6.62103534      13.25963693      -0.00000113      -0.00000113       0.00000112
Nb       8.28197384       8.28197384      14.91101170       0.00000047       0.00000047      -0.00000103
Nb       6.62600078       9.94033613       0.00052711      -0.00000038      -0.00000000      -0.00000018
Nb       8.28191365      11.59875862       1.65672269       0.00000251      -0.00000251      -0.00000000
Nb       6.62600079       9.94033613       3.31291827      -0.00000039      -0.00000000       0.00000018
Nb       8.28197384      11.59869842       4.96966057       0.00000049      -0.00000049       0.00000102
Nb       6.62635030       9.94033613       6.62635030       0.00000040       0.00000000       0.00000040
Nb       8.28246477      11.59820749       8.28246477       0.00000000       0.00000000       0.00000000
Nb       6.62653359       9.94033613       9.94033613       0.00000159       0.00000000       0.00000000
Nb       8.28246477      11.59820749      11.59820749       0.00000000       0.00000000       0.00000000
Nb       6.62635030       9.94033613      13.25432196       0.00000039       0.00000000      -0.00000040
Nb       8.28197384      11.59869842      14.91101169       0.00000047      -0.00000047      -0.00000103
Nb       6.62197638      13.25869588       0.00102117       0.00000012      -0.00000012       0.00000021
Nb       8.28150899      14.91052778       1.65672269       0.00000019      -0.00000088      -0.00000000
Nb       6.62197638      13.25869588       3.31242420       0.00000012      -0.00000012      -0.00000021
Nb       8.28044130      14.91089276       4.96977950      -0.00000130       0.00000093      -0.00000092
Nb       6.62103534      13.25963693       6.62103534      -0.00000113       0.00000112      -0.00000113
Nb       8.28197384      14.91101170       8.28197384       0.00000047      -0.00000103       0.00000047
Nb       6.62635030      13.25432196       9.94033613       0.00000039      -0.00000040       0.00000000
Nb       8.28197384      14.91101169      11.59869842       0.00000047      -0.00000103      -0.00000047
Nb       6.62103534      13.25963693      13.25963693      -0.00000114       0.00000113       0.00000113
Nb       8.28044130      14.91089276      14.91089276      -0.00000130       0.00000093       0.00000093
Nb       9.94033613      -0.00069309      -0.00069309      -0.00000000       0.00000034       0.00000034
Nb      11.59755089       1.65672269       1.65672269       0.00000086      -0.00000000      -0.00000000
Nb       9.94033613      -0.00069309       3.31413847      -0.00000000       0.00000034      -0.00000034
Nb      11.59916327       1.65672269       4.97014448      -0.00000019      -0.00000000       0.00000088
Nb       9.94033613       0.00052711       6.62600078      -0.00000000      -0.00000018      -0.00000038
Nb      11.59875862       1.65672269       8.28191365      -0.00000251      -0.00000000       0.00000251
Nb       9.94033613       0.00024581       9.94033613      -0.00000000      -0.00000398      -0.00000000
Nb      11.59875862       1.65672269      11.59875862      -0.00000251      -0.00000000      -0.00000251
Nb       9.94033613       0.00052711      13.25467148      -0.00000000      -0.00000018       0.00000038
Nb      11.59916327       1.65672269      14.91052778      -0.00000020      -0.00000000      -0.00000088
Nb       9.94033613       3.31413847      -0.00069309      -0.00000000      -0.00000034       0.00000034
Nb      11.59916327       4.97014448       1.65672269      -0.00000019       0.00000088      -0.00000000
Nb       9.94033613       3.31413847       3.31413847      -0.00000000      -0.00000034      -0.00000034
Nb      11.60023097       4.96977950       4.96977950       0.00000129      -0.00000093      -0.00000093
Nb       9.94033613       3.31291827       6.62600079      -0.00000000       0.00000018      -0.00000039
Nb      11.59869842       4.96966057       8.28197384      -0.00000049       0.00000102       0.00000049
Nb       9.94033613       3.31319957       9.94033613      -0.00000000       0.00000398      -0.00000000
Nb      11.59869842       4.96966057      11.59869842      -0.00000049       0.00000102      -0.00000049
Nb       9.94033613       3.31291827      13.25467148      -0.00000000       0.00000018       0.00000039
Nb      11.60023096       4.96977951      14.91089276       0.00000130      -0.00000093       0.00000093
Nb       9.94033613       6.62600078       0.00052711      -0.00000000      -0.00000038      -0.00000018
Nb      11.59875862       8.28191365       1.65672269      -0.00000251       0.00000251      -0.00000000
Nb       9.94033613       6.62600079       3.31291827      -0.00000000      -0.00000039       0.00000018
Nb      11.59869842       8.28197384       4.96966057      -0.00000049       0.00000049       0.00000102
Nb       9.94033613       6.62635030       6.62635030       0.00000000       0.00000040       0.00000040
Nb      11.59820749       8.28246477       8.28246477       0.00000000       0.00000000       0.00000000
Nb       9.94033613       6.62653359       9.94033613       0.00000000       0.00000159       0.00000000
Nb      11.59820749       8.28246477      11.59820749       0.00000000       0.00000000       0.00000000
Nb       9.94033613       6.62635030      13.25432196       0.00000000       0.00000039      -0.00000040
Nb      11.59869842       8.28197384      14.91101169      -0.00000047       0.00000047      -0.00000103
Nb       9.94033613       9.94033613       0.00024581      -0.00000000      -0.00000000      -0.00000398
Nb      11.59875862      11.59875862       1.65672269      -0.00000251      -0.00000251      -0.00000000
Nb       9.94033613       9.94033613       3.31319957      -0.00000000      -0.00000000       0.00000398
Nb      11.59869842      11.59869842       4.96966057      -0.00000049      -0.00000049       0.00000102
Nb       9.94033613       9.94033613       6.62653359       0.00000000       0.00000000       0.00000159
Nb      11.59820749      11.59820749       8.28246477       0.00000000       0.00000000       0.00000000
Nb       9.94033613       9.94033613       9.94033613       0.00000000       0.00000000       0.00000000
Nb      11.59820749      11.59820749      11.59820749       0.00000000       0.00000000       0.00000000
Nb       9.94033613       9.94033613      13.25413867       0.00000000       0.00000000      -0.00000158
Nb      11.59869842      11.59869842      14.91101169      -0.00000047      -0.00000047      -0.00000103
Nb       9.94033613      13.25467148       0.00052711      -0.00000000       0.00000038      -0.00000018
Nb      11.59916327      14.91052778       1.65672269      -0.00000020      -0.00000088      -0.00000000
Nb       9.94033613      13.25467148       3.31291827      -0.00000000       0.00000039       0.00000018
Nb      11.60023096      14.91089276       4.96977951       0.00000130       0.00000093      -0.00000093
Nb       9.94033613      13.25432196       6.62635030       0.00000000      -0.00000040       0.00000039
Nb      11.59869842      14.91101169       8.28197384      -0.00000047      -0.00000103       0.00000047
Nb       9.94033613      13.25413867       9.94033613       0.00000000      -0.00000158       0.00000000
Nb      11.59869842      14.91101169      11.59869842      -0.00000047      -0.00000103      -0.00000047
Nb       9.94033613      13.25432196      13.25432196       0.00000000      -0.00000039      -0.00000039
Nb      11.60023096      14.91089276      14.91089276       0.00000130       0.00000093       0.00000093
Nb      13.26003050      -0.00460870      -0.00460870       0.00000125      -0.00000052      -0.00000052
Nb      14.85214249       1.65672269       1.65672269      -0.00000159      -0.00000000      -0.00000000
Nb      13.26003050      -0.00460870       3.31805407       0.00000125      -0.00000052       0.00000052
Nb      14.93720125       1.65672269       4.94347101      -0.00000072       0.00000000       0.00000072
Nb      13.25869588       0.00102117       6.62197638      -0.00000012       0.00000021       0.00000012
Nb      14.91052778       1.65672269       8.28150899      -0.00000088      -0.00000000       0.00000019
Nb      13.25467148       0.00052711       9.94033613       0.00000038      -0.00000018      -0.00000000
Nb      14.91052778       1.65672269      11.59916327      -0.00000088      -0.00000000      -0.00000020
Nb      13.25869588       0.00102117      13.25869588      -0.00000012       0.00000022      -0.00000012
Nb      14.93720125       1.65672269      14.93720125      -0.00000072       0.00000000      -0.00000072
Nb      13.26003050       3.31805407      -0.00460870       0.00000125       0.00000052      -0.00000052
Nb      14.93720125       4.94347101       1.65672269      -0.00000072       0.00000072       0.00000000
Nb      13.26003050       3.31805407       3.31805407       0.00000125       0.00000052       0.00000052
Nb      14.93165088       4.94902138       4.94902138      -0.00000061       0.00000061       0.00000061
Nb      13.25869588       3.31242420       6.62197638      -0.00000012      -0.00000021       0.00000012
Nb      14.91089276       4.96977950       8.28044130       0.00000093      -0.00000092      -0.00000130
Nb      13.25467148       3.31291827       9.94033613       0.00000039       0.00000018      -0.00000000
Nb      14.91089276       4.96977951      11.60023096       0.00000093      -0.00000093       0.00000130
Nb      13.25869588       3.31242420      13.25869588      -0.00000012      -0.00000022      -0.00000012
Nb      14.93165088       4.94902138      14.93165088      -0.00000061       0.00000061      -0.00000061
Nb      13.25869588       6.62197638       0.00102117      -0.00000012       0.00000012       0.00000021
Nb      14.91052778       8.28150899       1.65672269      -0.00000088       0.00000019      -0.00000000
Nb      13.25869588       6.62197638       3.31242420      -0.00000012       0.00000012      -0.00000021
Nb      14.91089276       8.28044130       4.96977950       0.00000093      -0.00000130      -0.00000092
Nb      13.25963693       6.62103534       6.62103534       0.00000112      -0.00000113      -0.00000113
Nb      14.91101170       8.28197384       8.28197384      -0.00000103       0.00000047       0.00000047
Nb      13.25432196       6.62635030       9.94033613      -0.00000040       0.00000039       0.00000000
Nb      14.91101169       8.28197384      11.59869842      -0.00000103       0.00000047      -0.00000047
Nb      13.25963693       6.62103534      13.25963693       0.00000113      -0.00000114       0.00000113
Nb      14.91089276       8.28044130      14.91089276       0.00000093      -0.00000130       0.00000093
Nb      13.25467148       9.94033613       0.00052711       0.00000038      -0.00000000      -0.00000018
Nb      14.91052778      11.59916327       1.65672269      -0.00000088      -0.00000020      -0.00000000
Nb      13.25467148       9.94033613       3.31291827       0.00000039      -0.00000000       0.00000018
Nb      14.91089276      11.60023096       4.96977951       0.00000093       0.00000130      -0.00000093
Nb      13.25432196       9.94033613       6.62635030      -0.00000040       0.00000000       0.00000039
Nb      14.91101169      11.59869842       8.28197384      -0.00000103      -0.00000047       0.00000047
Nb      13.25413867       9.94033613       9.94033613      -0.00000158       0.00000000       0.00000000
Nb      14.91101169      11.59869842      11.59869842      -0.00000103      -0.00000047      -0.00000047
Nb      13.25432196       9.94033613      13.25432196      -0.00000039       0.00000000      -0.00000039
Nb      14.91089276      11.60023096      14.91089276       0.00000093       0.00000130       0.00000093
Nb      13.25869588      13.25869588       0.00102117      -0.00000012      -0.00000012       0.00000022
Nb      14.93720125      14.93720125       1.65672269      -0.00000072      -0.00000072       0.00000000
Nb      13.25869588      13.25869588       3.31242420      -0.00000012      -0.00000012      -0.00000022
Nb      14.93165088      14.93165088       4.94902138      -0.00000061      -0.00000061       0.00000061
Nb      13.25963693      13.25963693       6.62103534       0.00000113       0.00000113      -0.00000114
Nb      14.91089276      14.91089276       8.28044130       0.00000093       0.00000093      -0.00000130
Nb      13.25432196      13.25432196       9.94033613      -0.00000039      -0.00000039       0.00000000
Nb      14.91089276      14.91089276      11.60023096       0.00000093       0.00000093       0.00000130
Nb      13.25963692      13.25963692      13.25963692       0.00000114       0.00000114       0.00000114
Nb      14.93165088      14.93165088      14.93165088      -0.00000061      -0.00000061      -0.00000061
249
Lattice="16.567226886622468 0.0 0.0 0.0 16.567226886622468 0.0 0.0 0.0 16.567226886622468" Properties=species:S:1:pos:R:3:forces:R:3 energy=-2509.1313522807854 pbc="T T T"
Nb       0.13445868       0.13445868       0.13445868      -0.08954352      -0.08954352      -0.08954352
Nb       0.05508110       0.05508110       3.28497032       0.01396787       0.01396787      -0.03043824
Nb       1.65539572       1.65539572       5.03640099       0.00146043       0.00146043      -0.00479338
Nb      -0.00697405      -0.00697405       6.63408667       0.00280715       0.00280715      -0.00477740
Nb       1.65726215       1.65726215       8.28621631       0.00065913       0.00065913       0.00086920
Nb       0.00284727       0.00284727       9.95059580       0.00094599       0.00094599      -0.00119215
Nb       1.66298064       1.66298064      11.59723008      -0.00131283      -0.00131283       0.00528601
Nb       0.01118888       0.01118888      13.27369268      -0.00566554      -0.00566554       0.00137141
Nb       1.67027320       1.67027320      14.84972896      -0.00458933      -0.00458933       0.01170968
Nb       0.05508110       3.28497032       0.05508110       0.01396787      -0.03043824       0.01396787
Nb       1.65539572       5.03640099       1.65539572       0.00146043      -0.00479338       0.00146043
Nb       0.08027051       3.22755624       3.22755624      -0.01497847       0.02996604       0.02996604
Nb       1.65187679       4.93910622       4.93910622       0.00479149       0.00548786       0.00548786
Nb      -0.00569183       3.31707991       6.62155130       0.00097680       0.00181938       0.00224203
Nb       1.65587280       4.97097628       8.27920156       0.00093266       0.00062422       0.00268840
Nb      -0.00011819       3.31831966       9.94095011       0.00134571      -0.00022395       0.00243161
Nb       1.65782278       4.97625896      11.59591850       0.00081141      -0.00071136       0.00296154
Nb      -0.00282240       3.33041507      13.25976861       0.00379324      -0.00254985       0.00310407
Nb       1.66192402       4.95428833      14.93225800      -0.00375030      -0.00313678       0.00550018
Nb      -0.00697405       6.63408667      -0.00697405       0.00280715      -0.00477740       0.00280715
Nb       1.65726215       8.28621631       1.65726215       0.00065913       0.00086920       0.00065913
Nb      -0.00569183       6.62155130       3.31707991       0.00097680       0.00224203       0.00181938
Nb       1.65587280       8.27920156       4.97097628       0.00093266       0.00268840       0.00062422
Nb      -0.00049358       6.61982076       6.61982076       0.00087611       0.00312577       0.00312577
Nb       1.65628648       8.28240993       8.28240993       0.00065380       0.00102474       0.00102474
Nb       0.00028882       6.63033152       9.93905160       0.00069346       0.00006014       0.00198595
Nb       1.65776627       8.28814561      11.59883977       0.00069428      -0.00079298       0.00122706
Nb       0.00180018       6.63342338      13.25595979       0.00069293      -0.00218223       0.00296074
Nb       1.65855897       8.28952231      14.90989697       0.00041872      -0.00091309       0.00187339
Nb       0.00284727       9.95059580       0.00284727       0.00094599      -0.00119215       0.00094599
Nb       1.66298064      11.59723008       1.66298064      -0.00131283       0.00528601      -0.00131283
Nb      -0.00011819       9.94095011       3.31831966       0.00134571       0.00243161      -0.00022395
Nb       1.65782278      11.59591850       4.97625896       0.00081141       0.00296154      -0.00071136