249
Lattice="15.913388679826689 0.0 0.0 0.0 15.913388679826689 0.0 0.0 0.0 15.913388679826689" Properties=species:S:1:pos:R:3:forces:R:3 energy=-2650.6496024943967 pbc="T T T"
Mo       0.06568891       0.06568891       0.06568925       0.00000197       0.00000197       0.00000145
Mo       0.06568780       0.06568780       3.11699139       0.00000329       0.00000329      -0.00000518
Mo       1.59133918       1.59133918       4.79808360      -0.00000028      -0.00000028      -0.00000526
Mo      -0.00252805      -0.00252805       6.36085157      -0.00000262      -0.00000262      -0.00000022
Mo       1.59133885       1.59133885       7.95805061      -0.00000004      -0.00000004       0.00000679
Mo      -0.00052536      -0.00052536       9.54803240       0.00000293       0.00000293       0.00000092
Mo       1.59133901       1.59133901      11.13801390      -0.00000021      -0.00000021      -0.00000514
Mo      -0.00252728      -0.00252728      12.73521447      -0.00000283      -0.00000283       0.00000039
Mo       1.59133958       1.59133958      14.29798273      -0.00000045      -0.00000045       0.00000614
Mo       0.06568849       3.11699072       0.06568841       0.00000241      -0.00000426       0.00000250
Mo       1.59133936       4.79808352       1.59133939      -0.00000042      -0.00000537      -0.00000048
Mo       0.06568715       3.11699100       3.11699143       0.00000398      -0.00000445      -0.00000508
Mo       1.59133902       4.75147916       4.75147913      -0.00000023      -0.00000257      -0.00000251
Mo      -0.00252835       3.18520590       6.36085188      -0.00000236       0.00000228      -0.00000051
Mo       1.59133861       4.77306681       7.95079783       0.00000024       0.00000026       0.00000037
Mo      -0.00052563       3.18320291       9.54803228       0.00000313      -0.00000262       0.00000092
Mo       1.59133867       4.77306646      11.14526703       0.00000022       0.00000050       0.00000096
Mo      -0.00252761       3.18520550      12.73521381      -0.00000254       0.00000271       0.00000098
Mo       1.59133914       4.75147852      14.34458718      -0.00000003      -0.00000178       0.00000265
Mo      -0.00252774       6.36085143      -0.00252785      -0.00000279      -0.00000006      -0.00000276
Mo       1.59133893       7.95805079       1.59133891      -0.00000007       0.00000667      -0.00000012
Mo      -0.00252825       6.36085191       3.18520592      -0.00000233      -0.00000051       0.00000223
Mo       1.59133863       7.95079805       4.77306674       0.00000023       0.00000027       0.00000029
Mo      -0.00138629       6.35449702       6.35449688       0.00000161       0.00000094       0.00000114
Mo       1.59133826       7.95380027       7.95380018       0.00000052      -0.00000227      -0.00000220
Mo       0.00140681       6.36497892       9.54803281       0.00000139      -0.00000029       0.00000040
Mo       1.59133822       7.95379999      11.14226600       0.00000063      -0.00000193       0.00000232
Mo      -0.00138580       6.35449623      12.74156919       0.00000157       0.00000168      -0.00000071
Mo       1.59133867       7.95079770      14.32299956       0.00000025       0.00000031      -0.00000019
Mo      -0.00052525       9.54803258      -0.00052535       0.00000283       0.00000065       0.00000295
Mo       1.59133897      11.13801420       1.59133904      -0.00000012      -0.00000541      -0.00000028
Mo      -0.00052564       9.54803248       3.18320286       0.00000314       0.00000062      -0.00000255
Mo       1.59133864      11.14526717       4.77306650       0.00000030       0.00000073       0.00000053
Mo       0.00140676       9.54803290       6.36497889       0.00000138       0.00000025      -0.00000028
Mo       1.59133823      11.14226595       7.95380005       0.00000060       0.00000241      -0.00000203
Mo       0.00223136       9.54803340       9.54803344       0.00000156      -0.00000028      -0.00000030
Mo       1.59133824      11.14226663      11.14226659       0.00000057       0.00000171       0.00000176
Mo       0.00140731       9.54803310      12.73108762       0.00000094       0.00000022       0.00000011
Mo       1.59133867      11.14526804      14.32300005       0.00000029       0.00000038      -0.00000031
Mo      -0.00252730      12.73521461      -0.00252729      -0.00000302       0.00000031      -0.00000281
Mo       1.59133943      14.29798284       1.59133976      -0.00000037       0.00000591      -0.00000061
Mo      -0.00252782      12.73521379       3.18520567      -0.00000256       0.00000114       0.00000254
Mo       1.59133903      14.34458700       4.75147878      -0.00000013       0.00000285      -0.00000203
Mo      -0.00138596      12.74156902       6.35449640       0.00000148      -0.00000051       0.00000158
Mo       1.59133861      14.32299948       7.95079767       0.00000029      -0.00000019       0.00000032
Mo       0.00140722      12.73108758       9.54803305       0.00000097       0.00000013       0.00000033
Mo       1.59133866      14.32300008      11.14526779       0.00000027      -0.00000031       0.00000062
Mo      -0.00138533      12.74157046      12.74157035       0.00000130      -0.00000194      -0.00000184
Mo       1.59133917      14.34458882      14.34458868      -0.00000005       0.00000084       0.00000096
Mo       3.11699072       0.06568849       0.06568841      -0.00000426       0.00000241       0.00000250
Mo       4.79808352       1.59133936       1.59133939      -0.00000537      -0.00000042      -0.00000048
Mo       3.11699100       0.06568715       3.11699143      -0.00000445       0.00000398      -0.00000508
Mo       4.75147916       1.59133902       4.75147913      -0.00000257      -0.00000023      -0.00000251
Mo       3.18520590      -0.00252835       6.36085188       0.00000228      -0.00000236      -0.00000051
Mo       4.77306681       1.59133861       7.95079783       0.00000026       0.00000024       0.00000037
Mo       3.18320291      -0.00052563       9.54803228      -0.00000262       0.00000313       0.00000092
Mo       4.77306646       1.59133867      11.14526703       0.00000050       0.00000022       0.00000096
Mo       3.18520550      -0.00252761      12.73521381       0.00000271      -0.00000254       0.00000098
Mo       4.75147852       1.59133914      14.34458718      -0.00000178      -0.00000003       0.00000265
Mo       3.11699141       3.11699141       0.06568710      -0.00000520      -0.00000520       0.00000417
Mo       4.75147924       4.75147924       1.59133907      -0.00000268      -0.00000268      -0.00000037
Mo       3.11699084       3.11699084       3.11699085      -0.00000388      -0.00000388      -0.00000385
Mo       4.73847528       4.73847528       4.73847518      -0.00000125      -0.00000125      -0.00000121
Mo       3.18520609       3.18520609       6.36085218       0.00000211       0.00000211      -0.00000098
Mo       4.77427044       4.77427044       7.95270204      -0.00000030      -0.00000030       0.00000132
Mo       3.18320322       3.18320322       9.54803215      -0.00000297      -0.00000297       0.00000086
Mo       4.77427006       4.77427006      11.14336321       0.00000017       0.00000017      -0.00000034
Mo       3.18520590       3.18520590      12.73521301       0.00000227       0.00000227       0.00000195
Mo       4.73847498       4.73847498      14.35759065      -0.00000114      -0.00000114       0.00000188
Mo       3.18520591       6.36085189      -0.00252828       0.00000235      -0.00000047      -0.00000239
Mo       4.77306676       7.95079805       1.59133856       0.00000031       0.00000027       0.00000026
Mo       3.18520613       6.36085237       3.18520610       0.00000212      -0.00000112       0.00000207
Mo       4.77427050       7.95270229       4.77427036      -0.00000033       0.00000105      -0.00000023
Mo       3.18406361       6.35449737       6.35449722      -0.00000149       0.00000058       0.00000070
Mo       4.77189632       7.95411982       7.95411977      -0.00000035      -0.00000007      -0.00000003
Mo       3.18127009       6.36497933       9.54803276      -0.00000061      -0.00000066       0.00000033
Mo       4.77189580       7.95411956      11.14194687       0.00000011       0.00000025      -0.00000019
Mo       3.18406312       6.35449671      12.74156863      -0.00000096       0.00000133      -0.00000028
Mo       4.77426962       7.95270193      14.32179582       0.00000061       0.00000133       0.00000021
Mo       3.18320284       9.54803255      -0.00052562      -0.00000253       0.00000072       0.00000313
Mo       4.77306644      11.14526736       1.59133859       0.00000044       0.00000067       0.00000029
Mo       3.18320326       9.54803245       3.18320319      -0.00000303       0.00000061      -0.00000296
Mo       4.77427020      11.14336335       4.77427005      -0.00000007      -0.00000040       0.00000016
Mo       3.18127016       9.54803288       6.36497931      -0.00000068       0.00000025      -0.00000065
Mo       4.77189595      11.14194679       7.95411963      -0.00000008      -0.00000012       0.00000016
Mo       3.18044509       9.54803340       9.54803345      -0.00000034      -0.00000026      -0.00000036
Mo       4.77189531      11.14194741      11.14194741       0.00000063      -0.00000074      -0.00000072
Mo       3.18126959       9.54803310      12.73108722      -0.00000011       0.00000025       0.00000042
Mo       4.77426916      11.14336414      14.32179634       0.00000100      -0.00000090      -0.00000012
Mo       3.18520545      12.73521414      -0.00252765       0.00000272       0.00000069      -0.00000250
Mo       4.75147846      14.34458741       1.59133916      -0.00000180       0.00000243      -0.00000012
Mo       3.18520590      12.73521318       3.18520597       0.00000221       0.00000184       0.00000221
Mo       4.73847496      14.35759076       4.73847494      -0.00000115       0.00000164      -0.00000101
Mo       3.18406326      12.74156857       6.35449682      -0.00000117      -0.00000015       0.00000118
Mo       4.77426981      14.32179576       7.95270185       0.00000034       0.00000031       0.00000139
Mo       3.18126967      12.73108719       9.54803302      -0.00000019       0.00000046       0.00000029
Mo       4.77426927      14.32179637      11.14336391       0.00000093      -0.00000007      -0.00000071
Mo       3.18406270      12.74157003      12.74156988      -0.00000088      -0.00000164      -0.00000154
Mo       4.73847384      14.35759220      14.35759200       0.00000042       0.00000024       0.00000040
Mo       6.36085143      -0.00252774      -0.00252785      -0.00000006      -0.00000279      -0.00000276
Mo       7.95805079       1.59133893       1.59133891       0.00000667      -0.00000007      -0.00000012
Mo       6.36085191      -0.00252825       3.18520592      -0.00000051      -0.00000233       0.00000223
Mo       7.95079805       1.59133863       4.77306674       0.00000027       0.00000023       0.00000029
Mo       6.35449702      -0.00138629       6.35449688       0.00000094       0.00000161       0.00000114
Mo       7.95380027       1.59133826       7.95380018      -0.00000227       0.00000052      -0.00000220
Mo       6.36497892       0.00140681       9.54803281      -0.00000029       0.00000139       0.00000040
Mo       7.95379999       1.59133822      11.14226600      -0.00000193       0.00000063       0.00000232
Mo       6.35449623      -0.00138580      12.74156919       0.00000168       0.00000157      -0.00000071
Mo       7.95079770       1.59133867      14.32299956       0.00000031       0.00000025      -0.00000019
Mo       6.36085189       3.18520591      -0.00252828      -0.00000047       0.00000235      -0.00000239
Mo       7.95079805       4.77306676       1.59133856       0.00000027       0.00000031       0.00000026
Mo       6.36085237       3.18520613       3.18520610      -0.00000112       0.00000212       0.00000207
Mo       7.95270229       4.77427050       4.77427036       0.00000105      -0.00000033      -0.00000023
Mo       6.35449737       3.18406361       6.35449722       0.00000058      -0.00000149       0.00000070
Mo       7.95411982       4.77189632       7.95411977      -0.00000007      -0.00000035      -0.00000003
Mo       6.36497933       3.18127009       9.54803276      -0.00000066      -0.00000061       0.00000033
Mo       7.95411956       4.77189580      11.14194687       0.00000025       0.00000011      -0.00000019
Mo       6.35449671       3.18406312      12.74156863       0.00000133      -0.00000096      -0.00000028
Mo       7.95270193       4.77426962      14.32179582       0.00000133       0.00000061       0.00000021
Mo       6.35449694       6.35449694      -0.00138631       0.00000105       0.00000105       0.00000158
Mo       7.95380023       7.95380023       1.59133808      -0.00000223      -0.00000223       0.00000066
Mo       6.35449739       6.35449739       3.18406352       0.00000057       0.00000057      -0.00000149
Mo       7.95411985       7.95411985       4.77189616      -0.00000006      -0.00000006      -0.00000027
Mo       6.35927166       6.35927166       6.35927152      -0.00000059      -0.00000059      -0.00000050
Mo       7.95454357       7.95454357       7.95454365      -0.00000159      -0.00000159      -0.00000167
Mo       6.36476614       6.36476614       9.54803331      -0.00000139      -0.00000139      -0.00000008
Mo       7.95454325       7.95454325      11.14152403      -0.00000122      -0.00000122       0.00000042
Mo       6.35927098       6.35927098      12.73679475       0.00000003       0.00000003       0.00000056
Mo       7.95411935       7.95411935      14.32416968       0.00000035       0.00000035       0.00000081
Mo       6.36497879       9.54803297       0.00140672      -0.00000014       0.00000027       0.00000144
Mo       7.95379993      11.14226611       1.59133801      -0.00000186       0.00000229       0.00000079
Mo       6.36497935       9.54803295       3.18126994      -0.00000066       0.00000016      -0.00000050
Mo       7.95411961      11.14194684       4.77189571       0.00000019      -0.00000021       0.00000022
Mo       6.36476626       9.54803333       6.36476614      -0.00000154      -0.00000011      -0.00000138
Mo       7.95454333      11.14152381       7.95454343      -0.00000133       0.00000070      -0.00000146
Mo       6.36312712       9.54803377       9.54803392       0.00000278      -0.00000056      -0.00000069
Mo       7.95454287      11.14152430      11.14152445      -0.00000090       0.00000021       0.00000008
Mo       6.36476525       9.54803347      12.73130071      -0.00000044      -0.00000006       0.00000091
Mo       7.95411901      11.14194741      14.32417013       0.00000063      -0.00000056       0.00000038
Mo       6.35449615      12.74156945      -0.00138592       0.00000179      -0.00000092       0.00000163
Mo       7.95079766      14.32299967       1.59133855       0.00000040      -0.00000033       0.00000032
Mo       6.35449674      12.74156879       3.18406308       0.00000129      -0.00000043      -0.00000098
Mo       7.95270195      14.32179577       4.77426966       0.00000136       0.00000030       0.00000055
Mo       6.35927113      12.73679470       6.35927102      -0.00000012       0.00000061       0.00000001
Mo       7.95411945      14.32416966       7.95411941       0.00000023       0.00000073       0.00000026
Mo       6.36476539      12.73130062       9.54803349      -0.00000059       0.00000102      -0.00000006
Mo       7.95411910      14.32417019      11.14194736       0.00000055       0.00000035      -0.00000048
Mo       6.35927006      12.73679588      12.73679579       0.00000102      -0.00000051      -0.00000048
Mo       7.95270150      14.32179674      14.32179658       0.00000143      -0.00000052      -0.00000043
Mo       9.54803258      -0.00052525      -0.00052535       0.00000065       0.00000283       0.00000295
Mo      11.13801420       1.59133897       1.59133904      -0.00000541      -0.00000012      -0.00000028
Mo       9.54803248      -0.00052564       3.18320286       0.00000062       0.00000314      -0.00000255
Mo      11.14526717       1.59133864       4.77306650       0.00000073       0.00000030       0.00000053
Mo       9.54803290       0.00140676       6.36497889       0.00000025       0.00000138      -0.00000028
Mo      11.14226595       1.59133823       7.95380005       0.00000241       0.00000060      -0.00000203
Mo       9.54803340       0.00223136       9.54803344      -0.00000028       0.00000156      -0.00000030
Mo      11.14226663       1.59133824      11.14226659       0.00000171       0.00000057       0.00000176
Mo       9.54803310       0.00140731      12.73108762       0.00000022       0.00000094       0.00000011
Mo      11.14526804       1.59133867      14.32300005       0.00000038       0.00000029      -0.00000031
Mo       9.54803255       3.18320284      -0.00052562       0.00000072      -0.00000253       0.00000313
Mo      11.14526736       4.77306644       1.59133859       0.00000067       0.00000044       0.00000029
Mo       9.54803245       3.18320326       3.18320319       0.00000061      -0.00000303      -0.00000296
Mo      11.14336335       4.77427020       4.77427005      -0.00000040      -0.00000007       0.00000016
Mo       9.54803288       3.18127016       6.36497931       0.00000025      -0.00000068      -0.00000065
Mo      11.14194679       4.77189595       7.95411963      -0.00000012      -0.00000008       0.00000016
Mo       9.54803340       3.18044509       9.54803345      -0.00000026      -0.00000034      -0.00000036
Mo      11.14194741       4.77189531      11.14194741      -0.00000074       0.00000063      -0.00000072
Mo       9.54803310       3.18126959      12.73108722       0.00000025      -0.00000011       0.00000042
Mo      11.14336414       4.77426916      14.32179634      -0.00000090       0.00000100      -0.00000012
Mo       9.54803297       6.36497879       0.00140672       0.00000027      -0.00000014       0.00000144
Mo      11.14226611       7.95379993       1.59133801       0.00000229      -0.00000186       0.00000079
Mo       9.54803295       6.36497935       3.18126994       0.00000016      -0.00000066      -0.00000050
Mo      11.14194684       7.95411961       4.77189571      -0.00000021       0.00000019       0.00000022
Mo       9.54803333       6.36476626       6.36476614      -0.00000011      -0.00000154      -0.00000138
Mo      11.14152381       7.95454333       7.95454343       0.00000070      -0.00000133      -0.00000146
Mo       9.54803377       6.36312712       9.54803392      -0.00000056       0.00000278      -0.00000069
Mo      11.14152430       7.95454287      11.14152445       0.00000021      -0.00000090       0.00000008
Mo       9.54803347       6.36476525      12.73130071      -0.00000006      -0.00000044       0.00000091
Mo      11.14194741       7.95411901      14.32417013      -0.00000056       0.00000063       0.00000038
Mo       9.54803335       9.54803335       0.00223120      -0.00000018      -0.00000018       0.00000165
Mo      11.14226651      11.14226651       1.59133799       0.00000182       0.00000182       0.00000079
Mo       9.54803338       9.54803338       3.18044481      -0.00000025      -0.00000025      -0.00000003
Mo      11.14194721      11.14194721       4.77189524      -0.00000060      -0.00000060       0.00000067
Mo       9.54803375       9.54803375       6.36312713      -0.00000054      -0.00000054       0.00000273
Mo      11.14152414      11.14152414       7.95454311       0.00000034       0.00000034      -0.00000104
Mo       9.54803405       9.54803405       9.54803436      -0.00000083      -0.00000083      -0.00000114
Mo      11.14152462      11.14152462      11.14152483      -0.00000007      -0.00000007      -0.00000033
Mo       9.54803376       9.54803376      12.73293984      -0.00000056      -0.00000056      -0.00000316
Mo      11.14194777      11.14194777      14.32417057      -0.00000085      -0.00000085       0.00000002
Mo       9.54803302      12.73108769       0.00140710       0.00000022       0.00000009       0.00000121
Mo      11.14526787      14.32300004       1.59133858       0.00000046      -0.00000039       0.00000032
Mo       9.54803302      12.73108715       3.18126946       0.00000013       0.00000058      -0.00000006
Mo      11.14336386      14.32179616       4.77426930      -0.00000074       0.00000001       0.00000092
Mo       9.54803340      12.73130048       6.36476539      -0.00000016       0.00000121      -0.00000057
Mo      11.14194720      14.32417003       7.95411922      -0.00000038       0.00000048       0.00000048
Mo       9.54803376      12.73293970       9.54803397      -0.00000052      -0.00000309      -0.00000074
Mo      11.14194780      14.32417066      11.14194785      -0.00000093      -0.00000012      -0.00000095
Mo       9.54803344      12.73130149      12.73130148      -0.00000005       0.00000020       0.00000017
Mo      11.14336459      14.32179719      14.32179706      -0.00000102      -0.00000097      -0.00000077
Mo      12.73521461      -0.00252730      -0.00252729       0.00000031      -0.00000302      -0.00000281
Mo      14.29798284       1.59133943       1.59133976       0.00000591      -0.00000037      -0.00000061
Mo      12.73521379      -0.00252782       3.18520567       0.00000114      -0.00000256       0.00000254
Mo      14.34458700       1.59133903       4.75147878       0.00000285      -0.00000013      -0.00000203
Mo      12.74156902      -0.00138596       6.35449640      -0.00000051       0.00000148       0.00000158
Mo      14.32299948       1.59133861       7.95079767      -0.00000019       0.00000029       0.00000032
Mo      12.73108758       0.00140722       9.54803305       0.00000013       0.00000097       0.00000033
Mo      14.32300008       1.59133866      11.14526779      -0.00000031       0.00000027       0.00000062
Mo      12.74157046      -0.00138533      12.74157035      -0.00000194       0.00000130      -0.00000184
Mo      14.34458882       1.59133917      14.34458868       0.00000084      -0.00000005       0.00000096
Mo      12.73521414       3.18520545      -0.00252765       0.00000069       0.00000272      -0.00000250
Mo      14.34458741       4.75147846       1.59133916       0.00000243      -0.00000180      -0.00000012
Mo      12.73521318       3.18520590       3.18520597       0.00000184       0.00000221       0.00000221
Mo      14.35759076       4.73847496       4.73847494       0.00000164      -0.00000115      -0.00000101
Mo      12.74156857       3.18406326       6.35449682      -0.00000015      -0.00000117       0.00000118
Mo      14.32179576       4.77426981       7.95270185       0.00000031       0.00000034       0.00000139
Mo      12.73108719       3.18126967       9.54803302       0.00000046      -0.00000019       0.00000029
Mo      14.32179637       4.77426927      11.14336391      -0.00000007       0.00000093      -0.00000071
Mo      12.74157003       3.18406270      12.74156988      -0.00000164      -0.00000088      -0.00000154
Mo      14.35759220       4.73847384      14.35759200       0.00000024       0.00000042       0.00000040
Mo      12.74156945       6.35449615      -0.00138592      -0.00000092       0.00000179       0.00000163
Mo      14.32299967       7.95079766       1.59133855      -0.00000033       0.00000040       0.00000032
Mo      12.74156879       6.35449674       3.18406308      -0.00000043       0.00000129      -0.00000098
Mo      14.32179577       7.95270195       4.77426966       0.00000030       0.00000136       0.00000055
Mo      12.73679470       6.35927113       6.35927102       0.00000061      -0.00000012       0.00000001
Mo      14.32416966       7.95411945       7.95411941       0.00000073       0.00000023       0.00000026
Mo      12.73130062       6.36476539       9.54803349       0.00000102      -0.00000059      -0.00000006
Mo      14.32417019       7.95411910      11.14194736       0.00000035       0.00000055      -0.00000048
Mo      12.73679588       6.35927006      12.73679579      -0.00000051       0.00000102      -0.00000048
Mo      14.32179674       7.95270150      14.32179658      -0.00000052       0.00000143      -0.00000043
Mo      12.73108769       9.54803302       0.00140710       0.00000009       0.00000022       0.00000121
Mo      14.32300004      11.14526787       1.59133858      -0.00000039       0.00000046       0.00000032
Mo      12.73108715       9.54803302       3.18126946       0.00000058       0.00000013      -0.00000006
Mo      14.32179616      11.14336386       4.77426930       0.00000001      -0.00000074       0.00000092
Mo      12.73130048       9.54803340       6.36476539       0.00000121      -0.00000016      -0.00000057
Mo      14.32417003      11.14194720       7.95411922       0.00000048      -0.00000038       0.00000048
Mo      12.73293970       9.54803376       9.54803397      -0.00000309      -0.00000052      -0.00000074
Mo      14.32417066      11.14194780      11.14194785      -0.00000012      -0.00000093      -0.00000095
Mo      12.73130149       9.54803344      12.73130148       0.00000020      -0.00000005       0.00000017
Mo      14.32179719      11.14336459      14.32179706      -0.00000097      -0.00000102      -0.00000077
Mo      12.74157032      12.74157032      -0.00138548      -0.00000177      -0.00000177       0.00000138
Mo      14.34458846      14.34458846       1.59133926       0.00000117       0.00000117       0.00000001
Mo      12.74156968      12.74156968       3.18406262      -0.00000134      -0.00000134      -0.00000049
Mo      14.35759158      14.35759158       4.73847430       0.00000092       0.00000092      -0.00000022
Mo      12.73679546      12.73679546       6.35927030      -0.00000008      -0.00000008       0.00000076
Mo      14.32179645      14.32179645       7.95270160      -0.00000035      -0.00000035       0.00000142
Mo      12.73130133      12.73130133       9.54803358       0.00000033       0.00000033      -0.00000004
Mo      14.32179712      14.32179712      11.14336452      -0.00000087      -0.00000087      -0.00000103
Mo      12.73679670      12.73679670      12.73679668      -0.00000131      -0.00000131      -0.00000126
Mo      14.35759317      14.35759317      14.35759310      -0.00000110      -0.00000110      -0.00000083
249
Lattice="15.913388679826689 0.0 0.0 0.0 15.913388679826689 0.0 0.0 0.0 15.913388679826689" Properties=species:S:1:pos:R:3:forces:R:3 energy=-2650.624648466892 pbc="T T T"
Mo       0.14065681       0.14065681       0.14065690      -0.13163296      -0.13163296      -0.13163305
Mo       0.06313194       0.06313194       3.15005552       0.00766657       0.00766657      -0.03352429
Mo       1.59386326       1.59386326       4.80959079      -0.00103261      -0.00103261      -0.01081416
Mo      -0.00456031      -0.00456031       6.36870390       0.00283010       0.00283010      -0.00343693
Mo       1.59201511       1.59201511       7.96069088       0.00037739       0.00037739      -0.00049383
Mo       0.00008121       0.00008121       9.55065612       0.00217185       0.00217185       0.00354568
Mo       1.59468022       1.59468022      11.13610635       0.00008316       0.00008316       0.00487236
Mo       0.00733629       0.00733629      12.74244768       0.00061247       0.00061247       0.00879639
Mo       1.60190105       1.60190105      14.28730264      -0.00207833      -0.00207833       0.02781809
Mo       0.06313203       3.15005545       0.06313203       0.00766649      -0.03352423       0.00766649
Mo       1.59386329       4.80959083       1.59386326      -0.00103264      -0.01081421      -0.00103262
Mo       0.07727019       3.10566843       3.10566846      -0.01430618       0.02561858       0.02561856
Mo       1.58933021       4.75027068       4.75027064       0.00507833       0.00423950       0.00423954
Mo      -0.00250358       3.18570316       6.36180612       0.00059749       0.00007732       0.00266892
Mo       1.59126206       4.77443005       7.95094129       0.00090101       0.00023524       0.00059801
Mo      -0.00062193       3.18413789       9.54838520       0.00147692       0.00071069       0.00142836
Mo       1.59127521       4.77587129      11.14323386       0.00185262       0.00108306       0.00148039
Mo      -0.00298690       3.19135257      12.73558892       0.00644261       0.00066967       0.00116991
Mo       1.59626122       4.75803899      14.34135098      -0.00475992      -0.00115504       0.00424561
Mo      -0.00456026       6.36870393      -0.00456029       0.00283006      -0.00343696       0.00283008
Mo       1.59201513       7.96069096       1.59201511       0.00037737      -0.00049391       0.00037739
Mo      -0.00250356       6.36180616       3.18570315       0.00059747       0.00266887       0.00007733
Mo       1.59126207       7.95094134       4.77443005       0.00090100       0.00059797       0.00023524
Mo      -0.00227619       6.35342997       6.35342995       0.00070887       0.00195481       0.00195483
Mo       1.59015919       7.95462480       7.95462480       0.00096912       0.00084310       0.00084310
Mo       0.00031162       6.36644257       9.54770069       0.00113145       0.00109086       0.00041568
Mo       1.59080143       7.95710776      11.14186424       0.00057445       0.00015447       0.00118803
Mo      -0.00106563       6.35958788      12.73890614      -0.00024892      -0.00031276       0.00265327
Mo       1.59125055       7.95430644      14.32171720       0.00046527       0.00017227       0.00231998
Mo       0.00008121       9.55065618       0.00008122       0.00217185       0.00354562       0.00217184
Mo       1.59468021      11.13610640       1.59468024       0.00008317       0.00487233       0.00008314
Mo      -0.00062195       9.54838523       3.18413790       0.00147694       0.00142833       0.00071068
Mo       1.59127520      11.14323386       4.77587131       0.00185262       0.00148039       0.00108304