249
Lattice="15.850995852548909 0.0 0.0 0.0 15.850995852548909 0.0 0.0 0.0 15.850995852548909" Properties=species:S:1:pos:R:3:forces:R:3 energy=-2660.72697453048 pbc="T T T"
Mo       0.05056324       0.05056324       0.05056266      -0.00000319      -0.00000319      -0.00000272
Mo       0.05056215       0.05056215       3.11963890      -0.00000174      -0.00000174       0.00000019
Mo       1.58509985       1.58509985       4.78582073      -0.00000023      -0.00000023      -0.00000170
Mo      -0.00262633      -0.00262633       6.33469407      -0.00000055      -0.00000055      -0.00000027
Mo       1.58509956       1.58509956       7.92450392       0.00000016       0.00000016      -0.00000055
Mo      -0.00036133      -0.00036133       9.51059806       0.00000139       0.00000139      -0.00000018
Mo       1.58509990       1.58509990      11.09669150      -0.00000004      -0.00000004       0.00000083
Mo      -0.00262562      -0.00262562      12.68650232      -0.00000094      -0.00000094      -0.00000046
Mo       1.58510053       1.58510053      14.23537480      -0.00000055      -0.00000055       0.00000221
Mo       0.05056125       3.11963973       0.05056141      -0.00000071      -0.00000069      -0.00000091
Mo       1.58509932       4.78582098       1.58509964      -0.00000002      -0.00000181      -0.00000012
Mo       0.05056068       3.11963912       3.11963854      -0.00000016      -0.00000017       0.00000030
Mo       1.58509922       4.73155711       4.73155692      -0.00000027      -0.00000434      -0.00000421
Mo      -0.00262692       3.17282616       6.33469389      -0.00000027       0.00000011      -0.00000037
Mo       1.58509904       4.75642184       7.92366837       0.00000018       0.00000024      -0.00000162
Mo      -0.00036179       3.17056091       9.51059770       0.00000152      -0.00000113       0.00000004
Mo       1.58509926       4.75642214      11.09752655       0.00000016       0.00000008       0.00000172
Mo      -0.00262642       3.17282669      12.68650160      -0.00000042      -0.00000007       0.00000033
Mo       1.58509962       4.73155776      14.28963799      -0.00000031      -0.00000475       0.00000435
Mo      -0.00262706       6.33469463      -0.00262670      -0.00000019      -0.00000074      -0.00000033
Mo       1.58509901       7.92450408       1.58509943       0.00000049      -0.00000052       0.00000019
Mo      -0.00262731       6.33469429       3.17282589      -0.00000006      -0.00000060       0.00000024
Mo       1.58509882       7.92366851       4.75642175       0.00000041      -0.00000164       0.00000019
Mo       0.00135305       6.33434737       6.33434713       0.00000007       0.00000020       0.00000028
Mo       1.58509864       7.92399026       7.92399015       0.00000052       0.00000209       0.00000208
Mo      -0.00001001       6.34046683       9.51059748       0.00000072       0.00000006       0.00000001
Mo       1.58509882       7.92399056      11.09720464       0.00000052       0.00000202      -0.00000191
Mo       0.00135334       6.33434786      12.68684784       0.00000010       0.00000001      -0.00000032
Mo       1.58509913       7.92366902      14.26477298       0.00000035      -0.00000182       0.00000014
Mo      -0.00036182       9.51059842      -0.00036157       0.00000166      -0.00000029       0.00000143
Mo       1.58509974      11.09669157       1.58509973       0.00000009       0.00000098       0.00000002
Mo      -0.00036207       9.51059801       3.17056072       0.00000174      -0.00000003      -0.00000117
Mo       1.58509934      11.09752667       4.75642197       0.00000022       0.00000174       0.00000011
Mo      -0.00001003       9.51059777       6.34046661       0.00000087      -0.00000013       0.00000008
Mo       1.58509899      11.09720481       7.92399036       0.00000052      -0.00000202       0.00000211
Mo      -0.00009438       9.51059787       9.51059760       0.00000087      -0.00000009      -0.00000001
Mo       1.58509926      11.09720524      11.09720507       0.00000035      -0.00000238      -0.00000233
Mo      -0.00000964       9.51059837      12.68072850       0.00000070      -0.00000043       0.00000002
Mo       1.58509978      11.09752737      14.26477337      -0.00000001       0.00000122      -0.00000010
Mo      -0.00262568      12.68650267      -0.00262599      -0.00000082      -0.00000056      -0.00000070
Mo       1.58510080      14.23537486       1.58510025      -0.00000071       0.00000248      -0.00000040
Mo      -0.00262615      12.68650203       3.17282626      -0.00000047       0.00000001       0.00000017
Mo       1.58510017      14.28963818       4.73155744      -0.00000043       0.00000425      -0.00000451
Mo       0.00135376      12.68684823       6.33434740       0.00000003      -0.00000063       0.00000036
Mo       1.58509967      14.26477314       7.92366878       0.00000010       0.00000010      -0.00000170
Mo      -0.00000933      12.68072879       9.51059802       0.00000057      -0.00000008      -0.00000027
Mo       1.58510002      14.26477354      11.09752720      -0.00000011      -0.00000013       0.00000126
Mo       0.00135437      12.68684909      12.68684877      -0.00000033      -0.00000132      -0.00000118
Mo       1.58510076      14.28963918      14.28963898      -0.00000064       0.00000331       0.00000336
Mo       3.11963973       0.05056125       0.05056141      -0.00000069      -0.00000071      -0.00000091
Mo       4.78582098       1.58509932       1.58509964      -0.00000181      -0.00000002      -0.00000012
Mo       3.11963912       0.05056068       3.11963854      -0.00000017      -0.00000016       0.00000030
Mo       4.73155711       1.58509922       4.73155692      -0.00000434      -0.00000027      -0.00000421
Mo       3.17282616      -0.00262692       6.33469389       0.00000011      -0.00000027      -0.00000037
Mo       4.75642184       1.58509904       7.92366837       0.00000024       0.00000018      -0.00000162
Mo       3.17056091      -0.00036179       9.51059770      -0.00000113       0.00000152       0.00000004
Mo       4.75642214       1.58509926      11.09752655       0.00000008       0.00000016       0.00000172
Mo       3.17282669      -0.00262642      12.68650160      -0.00000007      -0.00000042       0.00000033
Mo       4.73155776       1.58509962      14.28963799      -0.00000475      -0.00000031       0.00000435
Mo       3.11963829       3.11963829       0.05056100       0.00000069       0.00000069      -0.00000060
Mo       4.73155653       4.73155653       1.58509942      -0.00000387      -0.00000387      -0.00000019
Mo       3.11963771       3.11963771       3.11963786       0.00000121       0.00000121       0.00000107
Mo       4.72811871       4.72811871       4.72811890      -0.00000081      -0.00000081      -0.00000081
Mo       3.17282563       3.17282563       6.33469355       0.00000028       0.00000028      -0.00000016
Mo       4.75552408       4.75552408       7.92157325      -0.00000001      -0.00000001       0.00000151
Mo       3.17056053       3.17056053       9.51059743      -0.00000108      -0.00000108       0.00000015
Mo       4.75552434       4.75552434      11.09962125      -0.00000014      -0.00000014      -0.00000142
Mo       3.17282612       3.17282612      12.68650128       0.00000007       0.00000007       0.00000049
Mo       4.72811924       4.72811924      14.29307557      -0.00000117      -0.00000117       0.00000090
Mo       3.17282551       6.33469383      -0.00262687       0.00000040      -0.00000030      -0.00000029
Mo       4.75642133       7.92366808       1.58509921       0.00000053      -0.00000152       0.00000016
Mo       3.17282527       6.33469349       3.17282564       0.00000046      -0.00000014       0.00000035
Mo       4.75552390       7.92157301       4.75552426       0.00000011       0.00000158      -0.00000008
Mo       3.16884469       6.33434684       6.33434687       0.00000016       0.00000042       0.00000045
Mo       4.75532266       7.92363380       7.92363399       0.00000166       0.00000087       0.00000085
Mo       3.17020768       6.34046641       9.51059730      -0.00000002       0.00000020       0.00000004
Mo       4.75532286       7.92363405      11.09756032       0.00000159       0.00000078      -0.00000057
Mo       3.16884502       6.33434730      12.68684770       0.00000012       0.00000024      -0.00000036
Mo       4.75552422       7.92157342      14.26567003       0.00000004       0.00000147       0.00000034
Mo       3.17056048       9.51059762      -0.00036179      -0.00000095       0.00000016       0.00000152
Mo       4.75642200      11.09752623       1.58509939       0.00000014       0.00000187       0.00000014
Mo       3.17056028       9.51059730       3.17056057      -0.00000090       0.00000030      -0.00000117
Mo       4.75552444      11.09962097       4.75552452      -0.00000014      -0.00000136      -0.00000022
Mo       3.17020767       9.51059725       6.34046645       0.00000007       0.00000005       0.00000012
Mo       4.75532304      11.09756013       7.92363422       0.00000158      -0.00000053       0.00000073
Mo       3.17029186       9.51059737       9.51059738       0.00000059       0.00000009       0.00000009
Mo       4.75532325      11.09756040      11.09756053       0.00000149      -0.00000066      -0.00000065
Mo       3.17020797       9.51059773      12.68072823       0.00000005      -0.00000012       0.00000020
Mo       4.75552478      11.09962142      14.26567017      -0.00000022      -0.00000157       0.00000037
Mo       3.17282665      12.68650148      -0.00262647      -0.00000007       0.00000047      -0.00000034
Mo       4.73155810      14.28963756       1.58509978      -0.00000507       0.00000462      -0.00000024
Mo       3.17282638      12.68650107       3.17282611      -0.00000004       0.00000073       0.00000008
Mo       4.72811991      14.29307518       4.72811956      -0.00000163       0.00000117      -0.00000142
Mo       3.16884539      12.68684765       6.33434729       0.00000007      -0.00000038       0.00000028
Mo       4.75552474      14.26566985       7.92157363      -0.00000017       0.00000033       0.00000141
Mo       3.17020824      12.68072824       9.51059771      -0.00000004       0.00000018      -0.00000007
Mo       4.75552500      14.26567007      11.09962160      -0.00000030       0.00000033      -0.00000157
Mo       3.16884575      12.68684828      12.68684824       0.00000006      -0.00000082      -0.00000075
Mo       4.72812036      14.29307563      14.29307579      -0.00000170       0.00000098       0.00000100
Mo       6.33469463      -0.00262706      -0.00262670      -0.00000074      -0.00000019      -0.00000033
Mo       7.92450408       1.58509901       1.58509943      -0.00000052       0.00000049       0.00000019
Mo       6.33469429      -0.00262731       3.17282589      -0.00000060      -0.00000006       0.00000024
Mo       7.92366851       1.58509882       4.75642175      -0.00000164       0.00000041       0.00000019
Mo       6.33434737       0.00135305       6.33434713       0.00000020       0.00000007       0.00000028
Mo       7.92399026       1.58509864       7.92399015       0.00000209       0.00000052       0.00000208
Mo       6.34046683      -0.00001001       9.51059748       0.00000006       0.00000072       0.00000001
Mo       7.92399056       1.58509882      11.09720464       0.00000202       0.00000052      -0.00000191
Mo       6.33434786       0.00135334      12.68684784       0.00000001       0.00000010      -0.00000032
Mo       7.92366902       1.58509913      14.26477298      -0.00000182       0.00000035       0.00000014
Mo       6.33469383       3.17282551      -0.00262687      -0.00000030       0.00000040      -0.00000029
Mo       7.92366808       4.75642133       1.58509921      -0.00000152       0.00000053       0.00000016
Mo       6.33469349       3.17282527       3.17282564      -0.00000014       0.00000046       0.00000035
Mo       7.92157301       4.75552390       4.75552426       0.00000158       0.00000011      -0.00000008
Mo       6.33434684       3.16884469       6.33434687       0.00000042       0.00000016       0.00000045
Mo       7.92363380       4.75532266       7.92363399       0.00000087       0.00000166       0.00000085
Mo       6.34046641       3.17020768       9.51059730       0.00000020      -0.00000002       0.00000004
Mo       7.92363405       4.75532286      11.09756032       0.00000078       0.00000159      -0.00000057
Mo       6.33434730       3.16884502      12.68684770       0.00000024       0.00000012      -0.00000036
Mo       7.92157342       4.75552422      14.26567003       0.00000147       0.00000004       0.00000034
Mo       6.33434671       6.33434671       0.00135339       0.00000054       0.00000054      -0.00000003
Mo       7.92398974       7.92398974       1.58509898       0.00000234       0.00000234       0.00000037
Mo       6.33434647       6.33434647       3.16884496       0.00000063       0.00000063       0.00000018
Mo       7.92363362       7.92363362       4.75532299       0.00000100       0.00000100       0.00000153
Mo       6.33489707       6.33489707       6.33489737      -0.00000089      -0.00000089      -0.00000096
Mo       7.92458309       7.92458309       7.92458342      -0.00000021      -0.00000021      -0.00000038
Mo       6.34032971       6.34032971       9.51059709      -0.00000009      -0.00000009       0.00000011
Mo       7.92458332       7.92458332      11.09661052      -0.00000033      -0.00000033       0.00000099
Mo       6.33489746       6.33489746      12.68629679      -0.00000111      -0.00000111       0.00000118
Mo       7.92363398       7.92363398      14.26587088       0.00000085       0.00000085      -0.00000086
Mo       6.34046639       9.51059712      -0.00000975       0.00000031       0.00000013       0.00000063
Mo       7.92399043      11.09720423       1.58509912       0.00000210      -0.00000157       0.00000039
Mo       6.34046618       9.51059689       3.17020795       0.00000038       0.00000020      -0.00000008
Mo       7.92363420      11.09755989       4.75532319       0.00000077      -0.00000019       0.00000138
Mo       6.34032972       9.51059674       6.34033000       0.00000001       0.00000025      -0.00000022
Mo       7.92458357      11.09661017       7.92458363      -0.00000044       0.00000120      -0.00000050
Mo       6.34023589       9.51059680       9.51059709       0.00000143       0.00000034       0.00000023
Mo       7.92458383      11.09661041      11.09661070      -0.00000059       0.00000111       0.00000094
Mo       6.34033005       9.51059712      12.68086413      -0.00000010       0.00000014       0.00000072
Mo       7.92363464      11.09756028      14.26587099       0.00000052      -0.00000036      -0.00000073
Mo       6.33434784      12.68684746       0.00135355      -0.00000001      -0.00000015       0.00000013
Mo       7.92366924      14.26477253       1.58509946      -0.00000194       0.00000056       0.00000014
Mo       6.33434758      12.68684722       3.16884530       0.00000009      -0.00000006       0.00000005
Mo       7.92157397      14.26566960       4.75552458       0.00000124       0.00000064      -0.00000023
Mo       6.33489791      12.68629640       6.33489779      -0.00000131       0.00000137      -0.00000127
Mo       7.92363456      14.26587051       7.92363432       0.00000057      -0.00000056       0.00000062
Mo       6.34033035      12.68086385       9.51059739      -0.00000022       0.00000082       0.00000005
Mo       7.92363487      14.26587071      11.09756059       0.00000040      -0.00000057      -0.00000054
Mo       6.33489831      12.68629676      12.68629699      -0.00000145       0.00000128       0.00000127
Mo       7.92157447      14.26566997      14.26567027       0.00000114       0.00000054       0.00000038
Mo       9.51059842      -0.00036182      -0.00036157      -0.00000029       0.00000166       0.00000143
Mo      11.09669157       1.58509974       1.58509973       0.00000098       0.00000009       0.00000002
Mo       9.51059801      -0.00036207       3.17056072      -0.00000003       0.00000174      -0.00000117
Mo      11.09752667       1.58509934       4.75642197       0.00000174       0.00000022       0.00000011
Mo       9.51059777      -0.00001003       6.34046661      -0.00000013       0.00000087       0.00000008
Mo      11.09720481       1.58509899       7.92399036      -0.00000202       0.00000052       0.00000211
Mo       9.51059787      -0.00009438       9.51059760      -0.00000009       0.00000087      -0.00000001
Mo      11.09720524       1.58509926      11.09720507      -0.00000238       0.00000035      -0.00000233
Mo       9.51059837      -0.00000964      12.68072850      -0.00000043       0.00000070       0.00000002
Mo      11.09752737       1.58509978      14.26477337       0.00000122      -0.00000001      -0.00000010
Mo       9.51059762       3.17056048      -0.00036179       0.00000016      -0.00000095       0.00000152
Mo      11.09752623       4.75642200       1.58509939       0.00000187       0.00000014       0.00000014
Mo       9.51059730       3.17056028       3.17056057       0.00000030      -0.00000090      -0.00000117
Mo      11.09962097       4.75552444       4.75552452      -0.00000136      -0.00000014      -0.00000022
Mo       9.51059725       3.17020767       6.34046645       0.00000005       0.00000007       0.00000012
Mo      11.09756013       4.75532304       7.92363422      -0.00000053       0.00000158       0.00000073
Mo       9.51059737       3.17029186       9.51059738       0.00000009       0.00000059       0.00000009
Mo      11.09756040       4.75532325      11.09756053      -0.00000066       0.00000149      -0.00000065
Mo       9.51059773       3.17020797      12.68072823      -0.00000012       0.00000005       0.00000020
Mo      11.09962142       4.75552478      14.26567017      -0.00000157      -0.00000022       0.00000037
Mo       9.51059712       6.34046639      -0.00000975       0.00000013       0.00000031       0.00000063
Mo      11.09720423       7.92399043       1.58509912      -0.00000157       0.00000210       0.00000039
Mo       9.51059689       6.34046618       3.17020795       0.00000020       0.00000038      -0.00000008
Mo      11.09755989       7.92363420       4.75532319      -0.00000019       0.00000077       0.00000138
Mo       9.51059674       6.34032972       6.34033000       0.00000025       0.00000001      -0.00000022
Mo      11.09661017       7.92458357       7.92458363       0.00000120      -0.00000044      -0.00000050
Mo       9.51059680       6.34023589       9.51059709       0.00000034       0.00000143       0.00000023
Mo      11.09661041       7.92458383      11.09661070       0.00000111      -0.00000059       0.00000094
Mo       9.51059712       6.34033005      12.68086413       0.00000014      -0.00000010       0.00000072
Mo      11.09756028       7.92363464      14.26587099      -0.00000036       0.00000052      -0.00000073
Mo       9.51059742       9.51059742      -0.00009411       0.00000013       0.00000013       0.00000061
Mo      11.09720514      11.09720514       1.58509932      -0.00000241      -0.00000241       0.00000027
Mo       9.51059715       9.51059715       3.17029214       0.00000028       0.00000028       0.00000034
Mo      11.09756059      11.09756059       4.75532329      -0.00000073      -0.00000073       0.00000136
Mo       9.51059687       9.51059687       6.34023615       0.00000033       0.00000033       0.00000122
Mo      11.09661071      11.09661071       7.92458381       0.00000092       0.00000092      -0.00000060
Mo       9.51059687       9.51059687       9.51059709       0.00000043       0.00000043       0.00000028
Mo      11.09661107      11.09661107      11.09661106       0.00000065       0.00000065       0.00000068
Mo       9.51059730       9.51059730      12.68095791       0.00000008       0.00000008      -0.00000054
Mo      11.09756117      11.09756117      14.26587133      -0.00000112      -0.00000112      -0.00000094
Mo       9.51059835      12.68072830      -0.00000944      -0.00000042       0.00000017       0.00000058
Mo      11.09752764      14.26477341       1.58509974       0.00000095      -0.00000012      -0.00000001
Mo       9.51059799      12.68072799       3.17020819      -0.00000021       0.00000033      -0.00000014
Mo      11.09962204      14.26567022       4.75552467      -0.00000195       0.00000027      -0.00000009
Mo       9.51059761      12.68086390       6.34033024      -0.00000008       0.00000083      -0.00000024
Mo      11.09756094      14.26587095       7.92363452      -0.00000078      -0.00000066       0.00000060
Mo       9.51059766      12.68095768       9.51059746      -0.00000016      -0.00000035      -0.00000001
Mo      11.09756141      14.26587129      11.09756109      -0.00000117      -0.00000086      -0.00000102
Mo       9.51059818      12.68086438      12.68086456      -0.00000039       0.00000055       0.00000042
Mo      11.09962281      14.26567082      14.26567079      -0.00000263      -0.00000014      -0.00000013
Mo      12.68650267      -0.00262568      -0.00262599      -0.00000056      -0.00000082      -0.00000070
Mo      14.23537486       1.58510080       1.58510025       0.00000248      -0.00000071      -0.00000040
Mo      12.68650203      -0.00262615       3.17282626       0.00000001      -0.00000047       0.00000017
Mo      14.28963818       1.58510017       4.73155744       0.00000425      -0.00000043      -0.00000451
Mo      12.68684823       0.00135376       6.33434740      -0.00000063       0.00000003       0.00000036
Mo      14.26477314       1.58509967       7.92366878       0.00000010       0.00000010      -0.00000170
Mo      12.68072879      -0.00000933       9.51059802      -0.00000008       0.00000057      -0.00000027
Mo      14.26477354       1.58510002      11.09752720      -0.00000013      -0.00000011       0.00000126
Mo      12.68684909       0.00135437      12.68684877      -0.00000132      -0.00000033      -0.00000118
Mo      14.28963918       1.58510076      14.28963898       0.00000331      -0.00000064       0.00000336
Mo      12.68650148       3.17282665      -0.00262647       0.00000047      -0.00000007      -0.00000034
Mo      14.28963756       4.73155810       1.58509978       0.00000462      -0.00000507      -0.00000024
Mo      12.68650107       3.17282638       3.17282611       0.00000073      -0.00000004       0.00000008
Mo      14.29307518       4.72811991       4.72811956       0.00000117      -0.00000163      -0.00000142
Mo      12.68684765       3.16884539       6.33434729      -0.00000038       0.00000007       0.00000028
Mo      14.26566985       4.75552474       7.92157363       0.00000033      -0.00000017       0.00000141
Mo      12.68072824       3.17020824       9.51059771       0.00000018      -0.00000004      -0.00000007
Mo      14.26567007       4.75552500      11.09962160       0.00000033      -0.00000030      -0.00000157
Mo      12.68684828       3.16884575      12.68684824      -0.00000082       0.00000006      -0.00000075
Mo      14.29307563       4.72812036      14.29307579       0.00000098      -0.00000170       0.00000100
Mo      12.68684746       6.33434784       0.00135355      -0.00000015      -0.00000001       0.00000013
Mo      14.26477253       7.92366924       1.58509946       0.00000056      -0.00000194       0.00000014
Mo      12.68684722       6.33434758       3.16884530      -0.00000006       0.00000009       0.00000005
Mo      14.26566960       7.92157397       4.75552458       0.00000064       0.00000124      -0.00000023
Mo      12.68629640       6.33489791       6.33489779       0.00000137      -0.00000131      -0.00000127
Mo      14.26587051       7.92363456       7.92363432      -0.00000056       0.00000057       0.00000062
Mo      12.68086385       6.34033035       9.51059739       0.00000082      -0.00000022       0.00000005
Mo      14.26587071       7.92363487      11.09756059      -0.00000057       0.00000040      -0.00000054
Mo      12.68629676       6.33489831      12.68629699       0.00000128      -0.00000145       0.00000127
Mo      14.26566997       7.92157447      14.26567027       0.00000054       0.00000114       0.00000038
Mo      12.68072830       9.51059835      -0.00000944       0.00000017      -0.00000042       0.00000058
Mo      14.26477341      11.09752764       1.58509974      -0.00000012       0.00000095      -0.00000001
Mo      12.68072799       9.51059799       3.17020819       0.00000033      -0.00000021      -0.00000014
Mo      14.26567022      11.09962204       4.75552467       0.00000027      -0.00000195      -0.00000009
Mo      12.68086390       9.51059761       6.34033024       0.00000083      -0.00000008      -0.00000024
Mo      14.26587095      11.09756094       7.92363452      -0.00000066      -0.00000078       0.00000060
Mo      12.68095768       9.51059766       9.51059746      -0.00000035      -0.00000016      -0.00000001
Mo      14.26587129      11.09756141      11.09756109      -0.00000086      -0.00000117      -0.00000102
Mo      12.68086438       9.51059818      12.68086456       0.00000055      -0.00000039       0.00000042
Mo      14.26567082      11.09962281      14.26567079      -0.00000014      -0.00000263      -0.00000013
Mo      12.68684909      12.68684909       0.00135417      -0.00000132      -0.00000132      -0.00000028
Mo      14.28963960      14.28963960       1.58510028       0.00000281       0.00000281      -0.00000039
Mo      12.68684861      12.68684861       3.16884547      -0.00000099      -0.00000099       0.00000024
Mo      14.29307641      14.29307641       4.72811964       0.00000033       0.00000033      -0.00000093
Mo      12.68629733      12.68629733       6.33489794       0.00000087       0.00000087      -0.00000111
Mo      14.26567061      14.26567061       7.92157395       0.00000013       0.00000013       0.00000152
Mo      12.68086474      12.68086474       9.51059789       0.00000035       0.00000035      -0.00000025
Mo      14.26567108      14.26567108      11.09962240      -0.00000021      -0.00000021      -0.00000237
Mo      12.68629810      12.68629810      12.68629785       0.00000023       0.00000023       0.00000041
Mo      14.29307749      14.29307749      14.29307708      -0.00000080      -0.00000080      -0.00000060
249
Lattice="15.850995852548909 0.0 0.0 0.0 15.850995852548909 0.0 0.0 0.0 15.850995852548909" Properties=species:S:1:pos:R:3:forces:R:3 energy=-2660.7035616689413 pbc="T T T"
Mo       0.11688503       0.11688503       0.11688497      -0.13506832      -0.13506832      -0.13506827
Mo       0.04790289       0.04790289       3.15125619       0.01070604       0.01070604      -0.03227465
Mo       1.58461193       1.58461193       4.79300615       0.00111850       0.00111850      -0.00443977
Mo      -0.00505305      -0.00505305       6.34912279       0.00428398       0.00428398      -0.00791472
Mo       1.58556138       1.58556138       7.92780650       0.00066614       0.00066614       0.00087489
Mo       0.00228586       0.00228586       9.52062233       0.00179086       0.00179086      -0.00004337
Mo       1.59027189       1.59027189      11.09620846      -0.00071519      -0.00071519       0.00818895
Mo       0.01214060       0.01214060      12.70311786      -0.00462978      -0.00462978       0.00087222
Mo       1.59773988       1.59773988      14.23393760      -0.00207149      -0.00207149       0.01327558
Mo       0.04790275       3.15125626       0.04790283       0.01070611      -0.03227469       0.01070607
Mo       1.58461187       4.79300613       1.58461196       0.00111853      -0.00443976       0.00111849
Mo       0.05556975       3.11173940       3.11173935      -0.01323437       0.02994305       0.02994308
Mo       1.58276430       4.72820751       4.72820754       0.00464206       0.00687212       0.00687210
Mo      -0.00357227       3.17237705       6.33542652       0.00068507       0.00194255       0.00538488
Mo       1.58483693       4.75745104       7.92199840       0.00051745       0.00041311       0.00313151
Mo       0.00027855       3.17398242       9.51111914       0.00127220      -0.00009143       0.00389562
Mo       1.58577209       4.76160927      11.09500252       0.00142838       0.00026090       0.00261203
Mo      -0.00180605       3.18403027      12.68547826       0.00777404      -0.00146239       0.00541477
Mo       1.58814959       4.74274021      14.28504336      -0.00362716      -0.00359113       0.00644755
Mo      -0.00505314       6.34912284      -0.00505307       0.00428402      -0.00791475       0.00428399
Mo       1.58556138       7.92780648       1.58556141       0.00066614       0.00087490       0.00066612
Mo      -0.00357227       6.33542656       3.17237702       0.00068506       0.00538486       0.00194256
Mo       1.58483698       7.92199838       4.75745107       0.00051741       0.00313152       0.00041309
Mo       0.00074038       6.33266418       6.33266415       0.00044407       0.00447143       0.00447144
Mo       1.58497343       7.92469473       7.92469476       0.00047467       0.00121964       0.00121962
Mo      -0.00004656       6.34434623       9.50954810       0.00037930       0.00042300       0.00243832
Mo       1.58557338       7.92982697      11.09726637       0.00101829      -0.00048390       0.00152266
Mo       0.00133475       6.34493318      12.68401592       0.00107125      -0.00170403       0.00389768
Mo       1.58613977       7.93159282      14.26414133       0.00083260      -0.00073109       0.00203502
Mo       0.00228586       9.52062237       0.00228584       0.00179086      -0.00004339       0.00179087
Mo       1.59027199      11.09620845       1.59027192      -0.00071525       0.00818896      -0.00071521
Mo       0.00027864       9.51111917       3.17398240       0.00127215       0.00389560      -0.00009142
Mo       1.58577224      11.09500250       4.76160929       0.00142829       0.00261204       0.00026088