249
Lattice="15.942175058045791 0.0 0.0 0.0 15.942175058045791 0.0 0.0 0.0 15.942175058045791" Properties=species:S:1:pos:R:3:forces:R:3 energy=-3171.260462728466 pbc="T T T"
W        0.06655695       0.06655695       0.06655695       0.00000242       0.00000242       0.00000242
W        0.06655695       0.06655695       3.12187806       0.00000242       0.00000242      -0.00000242
W        1.59421751       1.59421751       4.83143069      -0.00000000       0.00000000      -0.00000079
W       -0.00223506      -0.00223506       6.37293622      -0.00000005      -0.00000005       0.00000076
W        1.59421751       1.59421751       7.96833756       0.00000000       0.00000000       0.00000204
W       -0.00099868      -0.00099868       9.56530503      -0.00000118      -0.00000118       0.00000000
W        1.59421751       1.59421751      11.16227251       0.00000000       0.00000000      -0.00000204
W       -0.00223506      -0.00223506      12.75767385      -0.00000005      -0.00000005      -0.00000076
W        1.59421751       1.59421751      14.29917938      -0.00000000       0.00000000       0.00000079
W        0.06655695       3.12187806       0.06655695       0.00000242      -0.00000242       0.00000242
W        1.59421751       4.83143069       1.59421751       0.00000000      -0.00000079       0.00000000
W        0.06655695       3.12187806       3.12187806       0.00000242      -0.00000242      -0.00000242
W        1.59421751       4.75608971       4.75608971      -0.00000000       0.00000302       0.00000302
W       -0.00223506       3.19067008       6.37293622      -0.00000005       0.00000005       0.00000076
W        1.59421751       4.78408022       7.97062617       0.00000000      -0.00000120       0.00000022
W       -0.00099868       3.18943369       9.56530503      -0.00000118       0.00000118      -0.00000000
W        1.59421751       4.78408022      11.15998389       0.00000000      -0.00000120      -0.00000022
W       -0.00223506       3.19067008      12.75767385      -0.00000005       0.00000005      -0.00000076
W        1.59421751       4.75608971      14.37452036       0.00000000       0.00000302      -0.00000302
W       -0.00223506       6.37293622      -0.00223506      -0.00000005       0.00000076      -0.00000005
W        1.59421751       7.96833756       1.59421751      -0.00000000       0.00000204      -0.00000000
W       -0.00223506       6.37293622       3.19067008      -0.00000005       0.00000076       0.00000005
W        1.59421751       7.97062617       4.78408022       0.00000000       0.00000022      -0.00000120
W        0.00112163       6.36818052       6.36818052       0.00000123      -0.00000117      -0.00000117
W        1.59421751       7.96857573       7.96857573       0.00000000       0.00000180       0.00000180
W       -0.00037187       6.37722673       9.56530503       0.00000034      -0.00000085       0.00000000
W        1.59421751       7.96857573      11.16203434       0.00000000       0.00000180      -0.00000180
W        0.00112163       6.36818052      12.76242955       0.00000123      -0.00000117       0.00000117
W        1.59421751       7.97062617      14.34652985       0.00000000       0.00000022       0.00000120
W       -0.00099868       9.56530503      -0.00099868      -0.00000118      -0.00000000      -0.00000118
W        1.59421751      11.16227251       1.59421751      -0.00000000      -0.00000204       0.00000000
W       -0.00099868       9.56530503       3.18943369      -0.00000118       0.00000000       0.00000118
W        1.59421751      11.15998389       4.78408022       0.00000000      -0.00000022      -0.00000120
W       -0.00037187       9.56530503       6.37722673       0.00000034       0.00000000      -0.00000085
W        1.59421751      11.16203434       7.96857573      -0.00000000      -0.00000180       0.00000180
W        0.00018708       9.56530503       9.56530503      -0.00000228      -0.00000000       0.00000000
W        1.59421751      11.16203434      11.16203434      -0.00000000      -0.00000180      -0.00000180
W       -0.00037187       9.56530503      12.75338334       0.00000034      -0.00000000       0.00000085
W        1.59421751      11.15998389      14.34652985       0.00000000      -0.00000022       0.00000120
W       -0.00223506      12.75767385      -0.00223506      -0.00000005      -0.00000076      -0.00000005
W        1.59421751      14.29917938       1.59421751       0.00000000       0.00000079       0.00000000
W       -0.00223506      12.75767385       3.19067008      -0.00000005      -0.00000076       0.00000005
W        1.59421751      14.37452036       4.75608971       0.00000000      -0.00000302       0.00000302
W        0.00112163      12.76242955       6.36818052       0.00000123       0.00000117      -0.00000117
W        1.59421751      14.34652985       7.97062617       0.00000000       0.00000120       0.00000022
W       -0.00037187      12.75338334       9.56530503       0.00000034       0.00000085       0.00000000
W        1.59421751      14.34652985      11.15998389       0.00000000       0.00000120      -0.00000022
W        0.00112163      12.76242955      12.76242955       0.00000123       0.00000117       0.00000117
W        1.59421751      14.37452036      14.37452036       0.00000000      -0.00000302      -0.00000302
W        3.12187806       0.06655695       0.06655695      -0.00000242       0.00000242       0.00000242
W        4.83143069       1.59421751       1.59421751      -0.00000079       0.00000000      -0.00000000
W        3.12187806       0.06655695       3.12187806      -0.00000242       0.00000242      -0.00000242
W        4.75608971       1.59421751       4.75608971       0.00000302       0.00000000       0.00000302
W        3.19067008      -0.00223506       6.37293622       0.00000005      -0.00000005       0.00000076
W        4.78408022       1.59421751       7.97062617      -0.00000120      -0.00000000       0.00000022
W        3.18943369      -0.00099868       9.56530503       0.00000118      -0.00000118      -0.00000000
W        4.78408022       1.59421751      11.15998389      -0.00000120       0.00000000      -0.00000022
W        3.19067008      -0.00223506      12.75767385       0.00000005      -0.00000005      -0.00000076
W        4.75608971       1.59421751      14.37452036       0.00000302       0.00000000      -0.00000302
W        3.12187806       3.12187806       0.06655695      -0.00000242      -0.00000242       0.00000242
W        4.75608971       4.75608971       1.59421751       0.00000302       0.00000302      -0.00000000
W        3.12187806       3.12187806       3.12187806      -0.00000242      -0.00000242      -0.00000242
W        4.74525573       4.74525573       4.74525573       0.00000203       0.00000203       0.00000203
W        3.19067008       3.19067008       6.37293622       0.00000005       0.00000005       0.00000076
W        4.78288600       4.78288600       7.96855012       0.00000128       0.00000128      -0.00000203
W        3.18943369       3.18943369       9.56530503       0.00000118       0.00000118       0.00000000
W        4.78288600       4.78288600      11.16205995       0.00000128       0.00000128       0.00000203
W        3.19067008       3.19067008      12.75767385       0.00000005       0.00000005      -0.00000076
W        4.74525573       4.74525573      14.38535434       0.00000203       0.00000203      -0.00000203
W        3.19067008       6.37293622      -0.00223506       0.00000005       0.00000076      -0.00000005
W        4.78408022       7.97062617       1.59421751      -0.00000120       0.00000022       0.00000000
W        3.19067008       6.37293622       3.19067008       0.00000005       0.00000076       0.00000005
W        4.78288600       7.96855012       4.78288600       0.00000128      -0.00000203       0.00000128
W        3.18731338       6.36818052       6.36818052      -0.00000123      -0.00000117      -0.00000117
W        4.78264778       7.96813589       7.96813589      -0.00000098       0.00000089       0.00000089
W        3.18880688       6.37722673       9.56530503      -0.00000034      -0.00000085      -0.00000000
W        4.78264778       7.96813589      11.16247418      -0.00000098       0.00000089      -0.00000089
W        3.18731338       6.36818052      12.76242955      -0.00000123      -0.00000117       0.00000117
W        4.78288600       7.96855012      14.34772407       0.00000128      -0.00000203      -0.00000128
W        3.18943369       9.56530503      -0.00099868       0.00000118      -0.00000000      -0.00000118
W        4.78408022      11.15998389       1.59421751      -0.00000120      -0.00000022       0.00000000
W        3.18943369       9.56530503       3.18943369       0.00000118       0.00000000       0.00000118
W        4.78288600      11.16205995       4.78288600       0.00000128       0.00000203       0.00000128
W        3.18880688       9.56530503       6.37722673      -0.00000034       0.00000000      -0.00000085
W        4.78264778      11.16247418       7.96813589      -0.00000098      -0.00000089       0.00000089
W        3.18824793       9.56530503       9.56530503       0.00000228      -0.00000000      -0.00000000
W        4.78264778      11.16247418      11.16247418      -0.00000098      -0.00000089      -0.00000089
W        3.18880688       9.56530503      12.75338334      -0.00000034      -0.00000000       0.00000085
W        4.78288600      11.16205995      14.34772407       0.00000128       0.00000203      -0.00000128
W        3.19067008      12.75767385      -0.00223506       0.00000005      -0.00000076      -0.00000005
W        4.75608971      14.37452036       1.59421751       0.00000302      -0.00000302       0.00000000
W        3.19067008      12.75767385       3.19067008       0.00000005      -0.00000076       0.00000005
W        4.74525573      14.38535434       4.74525573       0.00000203      -0.00000203       0.00000203
W        3.18731338      12.76242955       6.36818052      -0.00000123       0.00000117      -0.00000117
W        4.78288600      14.34772407       7.96855012       0.00000128      -0.00000128      -0.00000203
W        3.18880688      12.75338334       9.56530503      -0.00000034       0.00000085      -0.00000000
W        4.78288600      14.34772407      11.16205995       0.00000128      -0.00000128       0.00000203
W        3.18731338      12.76242955      12.76242955      -0.00000123       0.00000117       0.00000117
W        4.74525573      14.38535434      14.38535434       0.00000203      -0.00000203      -0.00000203
W        6.37293622      -0.00223506      -0.00223506       0.00000076      -0.00000005      -0.00000005
W        7.96833756       1.59421751       1.59421751       0.00000204       0.00000000      -0.00000000
W        6.37293622      -0.00223506       3.19067008       0.00000076      -0.00000005       0.00000005
W        7.97062617       1.59421751       4.78408022       0.00000022       0.00000000      -0.00000120
W        6.36818052       0.00112163       6.36818052      -0.00000117       0.00000123      -0.00000117
W        7.96857573       1.59421751       7.96857573       0.00000180       0.00000000       0.00000180
W        6.37722673      -0.00037187       9.56530503      -0.00000085       0.00000034       0.00000000
W        7.96857573       1.59421751      11.16203434       0.00000180      -0.00000000      -0.00000180
W        6.36818052       0.00112163      12.76242955      -0.00000117       0.00000123       0.00000117
W        7.97062617       1.59421751      14.34652985       0.00000022      -0.00000000       0.00000120
W        6.37293622       3.19067008      -0.00223506       0.00000076       0.00000005      -0.00000005
W        7.97062617       4.78408022       1.59421751       0.00000022      -0.00000120      -0.00000000
W        6.37293622       3.19067008       3.19067008       0.00000076       0.00000005       0.00000005
W        7.96855012       4.78288600       4.78288600      -0.00000203       0.00000128       0.00000128
W        6.36818052       3.18731338       6.36818052      -0.00000117      -0.00000123      -0.00000117
W        7.96813589       4.78264778       7.96813589       0.00000089      -0.00000098       0.00000089
W        6.37722673       3.18880688       9.56530503      -0.00000085      -0.00000034      -0.00000000
W        7.96813589       4.78264778      11.16247418       0.00000089      -0.00000098      -0.00000089
W        6.36818052       3.18731338      12.76242955      -0.00000117      -0.00000123       0.00000117
W        7.96855012       4.78288600      14.34772407      -0.00000203       0.00000128      -0.00000128
W        6.36818052       6.36818052       0.00112163      -0.00000117      -0.00000117       0.00000123
W        7.96857573       7.96857573       1.59421751       0.00000180       0.00000180       0.00000000
W        6.36818052       6.36818052       3.18731338      -0.00000117      -0.00000117      -0.00000123
W        7.96813589       7.96813589       4.78264778       0.00000089       0.00000089      -0.00000098
W        6.36688477       6.36688477       6.36688477      -0.00000082      -0.00000082      -0.00000082
W        7.96887158       7.96887158       7.96887158      -0.00000116      -0.00000116      -0.00000116
W        6.37680809       6.37680809       9.56530503      -0.00000055      -0.00000055      -0.00000000
W        7.96887158       7.96887158      11.16173849      -0.00000116      -0.00000116       0.00000116
W        6.36688477       6.36688477      12.76372530      -0.00000082      -0.00000082       0.00000082
W        7.96813589       7.96813589      14.34796229       0.00000089       0.00000089       0.00000098
W        6.37722673       9.56530503      -0.00037187      -0.00000085      -0.00000000       0.00000034
W        7.96857573      11.16203434       1.59421751       0.00000180      -0.00000180       0.00000000
W        6.37722673       9.56530503       3.18880688      -0.00000085      -0.00000000      -0.00000034
W        7.96813589      11.16247418       4.78264778       0.00000089      -0.00000089      -0.00000098
W        6.37680809       9.56530503       6.37680809      -0.00000055       0.00000000      -0.00000055
W        7.96887158      11.16173849       7.96887158      -0.00000116       0.00000116      -0.00000116
W        6.37644570       9.56530503       9.56530503       0.00000428       0.00000000      -0.00000000
W        7.96887158      11.16173849      11.16173849      -0.00000116       0.00000116       0.00000116
W        6.37680809       9.56530503      12.75380198      -0.00000055      -0.00000000       0.00000055
W        7.96813589      11.16247418      14.34796229       0.00000089      -0.00000089       0.00000098
W        6.36818052      12.76242955       0.00112163      -0.00000117       0.00000117       0.00000123
W        7.97062617      14.34652985       1.59421751       0.00000022       0.00000120       0.00000000
W        6.36818052      12.76242955       3.18731338      -0.00000117       0.00000117      -0.00000123
W        7.96855012      14.34772407       4.78288600      -0.00000203      -0.00000128       0.00000128
W        6.36688477      12.76372530       6.36688477      -0.00000082       0.00000082      -0.00000082
W        7.96813589      14.34796229       7.96813589       0.00000089       0.00000098       0.00000089
W        6.37680809      12.75380198       9.56530503      -0.00000055       0.00000055       0.00000000
W        7.96813589      14.34796229      11.16247418       0.00000089       0.00000098      -0.00000089
W        6.36688477      12.76372530      12.76372530      -0.00000082       0.00000082       0.00000082
W        7.96855012      14.34772407      14.34772407      -0.00000203      -0.00000128      -0.00000128
W        9.56530503      -0.00099868      -0.00099868       0.00000000      -0.00000118      -0.00000118
W       11.16227251       1.59421751       1.59421751      -0.00000204       0.00000000      -0.00000000
W        9.56530503      -0.00099868       3.18943369       0.00000000      -0.00000118       0.00000118
W       11.15998389       1.59421751       4.78408022      -0.00000022      -0.00000000      -0.00000120
W        9.56530503      -0.00037187       6.37722673       0.00000000       0.00000034      -0.00000085
W       11.16203434       1.59421751       7.96857573      -0.00000180       0.00000000       0.00000180
W        9.56530503       0.00018708       9.56530503       0.00000000      -0.00000228      -0.00000000
W       11.16203434       1.59421751      11.16203434      -0.00000180       0.00000000      -0.00000180
W        9.56530503      -0.00037187      12.75338334      -0.00000000       0.00000034       0.00000085
W       11.15998389       1.59421751      14.34652985      -0.00000022       0.00000000       0.00000120
W        9.56530503       3.18943369      -0.00099868      -0.00000000       0.00000118      -0.00000118
W       11.15998389       4.78408022       1.59421751      -0.00000022      -0.00000120      -0.00000000
W        9.56530503       3.18943369       3.18943369      -0.00000000       0.00000118       0.00000118
W       11.16205995       4.78288600       4.78288600       0.00000203       0.00000128       0.00000128
W        9.56530503       3.18880688       6.37722673      -0.00000000      -0.00000034      -0.00000085
W       11.16247418       4.78264778       7.96813589      -0.00000089      -0.00000098       0.00000089
W        9.56530503       3.18824793       9.56530503       0.00000000       0.00000228      -0.00000000
W       11.16247418       4.78264778      11.16247418      -0.00000089      -0.00000098      -0.00000089
W        9.56530503       3.18880688      12.75338334      -0.00000000      -0.00000034       0.00000085
W       11.16205995       4.78288600      14.34772407       0.00000203       0.00000128      -0.00000128
W        9.56530503       6.37722673      -0.00037187      -0.00000000      -0.00000085       0.00000034
W       11.16203434       7.96857573       1.59421751      -0.00000180       0.00000180       0.00000000
W        9.56530503       6.37722673       3.18880688      -0.00000000      -0.00000085      -0.00000034
W       11.16247418       7.96813589       4.78264778      -0.00000089       0.00000089      -0.00000098
W        9.56530503       6.37680809       6.37680809       0.00000000      -0.00000055      -0.00000055
W       11.16173849       7.96887158       7.96887158       0.00000116      -0.00000116      -0.00000116
W        9.56530503       6.37644570       9.56530503       0.00000000       0.00000428      -0.00000000
W       11.16173849       7.96887158      11.16173849       0.00000116      -0.00000116       0.00000116
W        9.56530503       6.37680809      12.75380198      -0.00000000      -0.00000055       0.00000055
W       11.16247418       7.96813589      14.34796229      -0.00000089       0.00000089       0.00000098
W        9.56530503       9.56530503       0.00018708       0.00000000      -0.00000000      -0.00000228
W       11.16203434      11.16203434       1.59421751      -0.00000180      -0.00000180       0.00000000
W        9.56530503       9.56530503       3.18824793       0.00000000      -0.00000000       0.00000228
W       11.16247418      11.16247418       4.78264778      -0.00000089      -0.00000089      -0.00000098
W        9.56530503       9.56530503       6.37644570      -0.00000000      -0.00000000       0.00000428
W       11.16173849      11.16173849       7.96887158       0.00000116       0.00000116      -0.00000116
W        9.56530503       9.56530503       9.56530503      -0.00000000       0.00000000       0.00000000
W       11.16173849      11.16173849      11.16173849       0.00000116       0.00000116       0.00000116
W        9.56530503       9.56530503      12.75416437       0.00000000      -0.00000000      -0.00000428
W       11.16247418      11.16247418      14.34796229      -0.00000089      -0.00000089       0.00000098
W        9.56530503      12.75338334      -0.00037187       0.00000000       0.00000085       0.00000034
W       11.15998389      14.34652985       1.59421751      -0.00000022       0.00000120      -0.00000000
W        9.56530503      12.75338334       3.18880688       0.00000000       0.00000085      -0.00000034
W       11.16205995      14.34772407       4.78288600       0.00000203      -0.00000128       0.00000128
W        9.56530503      12.75380198       6.37680809      -0.00000000       0.00000055      -0.00000055
W       11.16247418      14.34796229       7.96813589      -0.00000089       0.00000098       0.00000089
W        9.56530503      12.75416437       9.56530503      -0.00000000      -0.00000428       0.00000000
W       11.16247418      14.34796229      11.16247418      -0.00000089       0.00000098      -0.00000089
W        9.56530503      12.75380198      12.75380198      -0.00000000       0.00000055       0.00000055
W       11.16205995      14.34772407      14.34772407       0.00000203      -0.00000128      -0.00000128
W       12.75767385      -0.00223506      -0.00223506      -0.00000076      -0.00000005      -0.00000005
W       14.29917938       1.59421751       1.59421751       0.00000079       0.00000000      -0.00000000
W       12.75767385      -0.00223506       3.19067008      -0.00000076      -0.00000005       0.00000005
W       14.37452036       1.59421751       4.75608971      -0.00000302       0.00000000       0.00000302
W       12.76242955       0.00112163       6.36818052       0.00000117       0.00000123      -0.00000117
W       14.34652985       1.59421751       7.97062617       0.00000120       0.00000000       0.00000022
W       12.75338334      -0.00037187       9.56530503       0.00000085       0.00000034       0.00000000
W       14.34652985       1.59421751      11.15998389       0.00000120       0.00000000      -0.00000022
W       12.76242955       0.00112163      12.76242955       0.00000117       0.00000123       0.00000117
W       14.37452036       1.59421751      14.37452036      -0.00000302       0.00000000      -0.00000302
W       12.75767385       3.19067008      -0.00223506      -0.00000076       0.00000005      -0.00000005
W       14.37452036       4.75608971       1.59421751      -0.00000302       0.00000302       0.00000000
W       12.75767385       3.19067008       3.19067008      -0.00000076       0.00000005       0.00000005
W       14.38535434       4.74525573       4.74525573      -0.00000203       0.00000203       0.00000203
W       12.76242955       3.18731338       6.36818052       0.00000117      -0.00000123      -0.00000117
W       14.34772407       4.78288600       7.96855012      -0.00000128       0.00000128      -0.00000203
W       12.75338334       3.18880688       9.56530503       0.00000085      -0.00000034      -0.00000000
W       14.34772407       4.78288600      11.16205995      -0.00000128       0.00000128       0.00000203
W       12.76242955       3.18731338      12.76242955       0.00000117      -0.00000123       0.00000117
W       14.38535434       4.74525573      14.38535434      -0.00000203       0.00000203      -0.00000203
W       12.76242955       6.36818052       0.00112163       0.00000117      -0.00000117       0.00000123
W       14.34652985       7.97062617       1.59421751       0.00000120       0.00000022       0.00000000
W       12.76242955       6.36818052       3.18731338       0.00000117      -0.00000117      -0.00000123
W       14.34772407       7.96855012       4.78288600      -0.00000128      -0.00000203       0.00000128
W       12.76372530       6.36688477       6.36688477       0.00000082      -0.00000082      -0.00000082
W       14.34796229       7.96813589       7.96813589       0.00000098       0.00000089       0.00000089
W       12.75380198       6.37680809       9.56530503       0.00000055      -0.00000055      -0.00000000
W       14.34796229       7.96813589      11.16247418       0.00000098       0.00000089      -0.00000089
W       12.76372530       6.36688477      12.76372530       0.00000082      -0.00000082       0.00000082
W       14.34772407       7.96855012      14.34772407      -0.00000128      -0.00000203      -0.00000128
W       12.75338334       9.56530503      -0.00037187       0.00000085      -0.00000000       0.00000034
W       14.34652985      11.15998389       1.59421751       0.00000120      -0.00000022       0.00000000
W       12.75338334       9.56530503       3.18880688       0.00000085      -0.00000000      -0.00000034
W       14.34772407      11.16205995       4.78288600      -0.00000128       0.00000203       0.00000128
W       12.75380198       9.56530503       6.37680809       0.00000055      -0.00000000      -0.00000055
W       14.34796229      11.16247418       7.96813589       0.00000098      -0.00000089       0.00000089
W       12.75416437       9.56530503       9.56530503      -0.00000428      -0.00000000       0.00000000
W       14.34796229      11.16247418      11.16247418       0.00000098      -0.00000089      -0.00000089
W       12.75380198       9.56530503      12.75380198       0.00000055       0.00000000       0.00000055
W       14.34772407      11.16205995      14.34772407      -0.00000128       0.00000203      -0.00000128
W       12.76242955      12.76242955       0.00112163       0.00000117       0.00000117       0.00000123
W       14.37452036      14.37452036       1.59421751      -0.00000302      -0.00000302       0.00000000
W       12.76242955      12.76242955       3.18731338       0.00000117       0.00000117      -0.00000123
W       14.38535434      14.38535434       4.74525573      -0.00000203      -0.00000203       0.00000203
W       12.76372530      12.76372530       6.36688477       0.00000082       0.00000082      -0.00000082
W       14.34772407      14.34772407       7.96855012      -0.00000128      -0.00000128      -0.00000203
W       12.75380198      12.75380198       9.56530503       0.00000055       0.00000055       0.00000000
W       14.34772407      14.34772407      11.16205995      -0.00000128      -0.00000128       0.00000203
W       12.76372530      12.76372530      12.76372530       0.00000082       0.00000082       0.00000082
W       14.38535434      14.38535434      14.38535434      -0.00000203      -0.00000203      -0.00000203
249
Lattice="15.942175058045791 0.0 0.0 0.0 15.942175058045791 0.0 0.0 0.0 15.942175058045791" Properties=species:S:1:pos:R:3:forces:R:3 energy=-3171.223908974223 pbc="T T T"
W        0.13527920       0.13527920       0.13527920      -0.20108658      -0.20108658      -0.20108658
W        0.06505346       0.06505346       3.15362882       0.01616743       0.01616743      -0.05762300
W        1.59682762       1.59682762       4.83892769      -0.00091572      -0.00091572      -0.00675901
W       -0.00277860      -0.00277860       6.38060906       0.00386237       0.00386237      -0.00768763
W        1.59588944       1.59588944       7.97083908      -0.00017368      -0.00017368      -0.00058861
W        0.00088571       0.00088571       9.56758338       0.00295186       0.00295186       0.00472150
W        1.59889577       1.59889577      11.15912344      -0.00171945      -0.00171945       0.01313954
W        0.00982530       0.00982530      12.75971729      -0.00341071      -0.00341071       0.03261645
W        1.60575249       1.60575249      14.29728787      -0.00199047      -0.00199047       0.02090005
W        0.06505346       3.15362882       0.06505346       0.01616743      -0.05762300       0.01616743
W        1.59682762       4.83892769       1.59682762      -0.00091572      -0.00675901      -0.00091572
W        0.07217533       3.11707268       3.11707268      -0.01281907       0.03592355       0.03592355
W        1.59267717       4.75525256       4.75525256       0.00753643       0.00872708       0.00872708
W       -0.00204163       3.19204249       6.37580957       0.00033102       0.00218652       0.00042572
W        1.59434787       4.78622288       7.97096660       0.00100884       0.00020081       0.00244632
W       -0.00096769       3.19244547       9.56578569       0.00280555      -0.00129675       0.00345843
W        1.59462757       4.78734049      11.15898402       0.00284371       0.00142754       0.00133069
W       -0.00241652       3.19643292      12.75835708       0.01269368       0.00151613       0.00284068
W        1.60018024       4.76464522      14.37048655      -0.00874784      -0.00517214       0.00972440
W       -0.00277860       6.38060906      -0.00277860       0.00386237      -0.00768763       0.00386237
W        1.59588944       7.97083908       1.59588944      -0.00017368      -0.00058861      -0.00017368
W       -0.00204163       6.37580957       3.19204249       0.00033102       0.00042572       0.00218652
W        1.59434787       7.97096660       4.78622288       0.00100884       0.00244632       0.00020081
W        0.00059796       6.36845308       6.36845308       0.00081229       0.00483795       0.00483795
W        1.59355700       7.97028492       7.97028492       0.00145920       0.00154676       0.00154676
W       -0.00090616       6.37985037       9.56607771       0.00117560       0.00125407       0.00155563
W        1.59448065       7.97240535      11.16225139       0.00075828       0.00040848       0.00252583
W        0.00173006       6.37384490      12.76050559       0.00070134      -0.00141912       0.00493944
W        1.59587958       7.97428683      14.34575073      -0.00019388       0.00030696       0.00373179
W        0.00088571       9.56758338       0.00088571       0.00295186       0.00472150       0.00295186
W        1.59889577      11.15912344       1.59889577      -0.00171945       0.01313954      -0.00171945
W       -0.00096769       9.56578569       3.19244547       0.00280555       0.00345843      -0.00129675
W        1.59462757      11.15898402       4.78734049       0.00284371       0.00133069       0.00142754